TITLE = "2d Diffusion Data"
VARIABLES = "X", "Y", "T", "QX", "QY", "QMAG"
ZONE T="Zone 1", I=202, J=102, DATAPACKING=POINT, ZONETYPE=ORDERED
   2.500000E-03    2.500000E-03    1.500000E+01   -5.000000E+03    0.000000E+00    5.000000E+03
   7.500000E-03    2.500000E-03    1.500000E+01    0.000000E+00    0.000000E+00    0.000000E+00
   1.250000E-02    2.500000E-03    1.500000E+01    0.000000E+00    0.000000E+00    0.000000E+00
   1.750000E-02    2.500000E-03    1.500000E+01    0.000000E+00    0.000000E+00    0.000000E+00
   2.250000E-02    2.500000E-03    1.500000E+01    0.000000E+00    0.000000E+00    0.000000E+00
   2.750000E-02    2.500000E-03    1.500000E+01    0.000000E+00    0.000000E+00    0.000000E+00
   3.250000E-02    2.500000E-03    1.500000E+01    0.000000E+00    0.000000E+00    0.000000E+00
   3.750000E-02    2.500000E-03    1.500000E+01    0.000000E+00    0.000000E+00    0.000000E+00
   4.250000E-02    2.500000E-03    1.500000E+01    0.000000E+00    0.000000E+00    0.000000E+00
   4.750000E-02    2.500000E-03    1.500000E+01    0.000000E+00    0.000000E+00    0.000000E+00
   5.250000E-02    2.500000E-03    1.500000E+01    0.000000E+00    0.000000E+00    0.000000E+00
   5.750000E-02    2.500000E-03    1.500000E+01    0.000000E+00    0.000000E+00    0.000000E+00
   6.250000E-02    2.500000E-03    1.500000E+01    0.000000E+00    0.000000E+00    0.000000E+00
   6.750000E-02    2.500000E-03    1.500000E+01    0.000000E+00    0.000000E+00    0.000000E+00
   7.250000E-02    2.500000E-03    1.500000E+01    0.000000E+00    0.000000E+00    0.000000E+00
   7.750000E-02    2.500000E-03    1.500000E+01    0.000000E+00    0.000000E+00    0.000000E+00
   8.250000E-02    2.500000E-03    1.500000E+01    0.000000E+00    0.000000E+00    0.000000E+00
   8.750000E-02    2.500000E-03    1.500000E+01    0.000000E+00    0.000000E+00    0.000000E+00
   9.250000E-02    2.500000E-03    1.500000E+01    0.000000E+00    0.000000E+00    0.000000E+00
   9.750000E-02    2.500000E-03    1.500000E+01    0.000000E+00    0.000000E+00    0.000000E+00
   1.025000E-01    2.500000E-03    1.500000E+01    0.000000E+00    0.000000E+00    0.000000E+00
   1.075000E-01    2.500000E-03    1.500000E+01    0.000000E+00    0.000000E+00    0.000000E+00
   1.125000E-01    2.500000E-03    1.500000E+01    0.000000E+00    0.000000E+00    0.000000E+00
   1.175000E-01    2.500000E-03    1.500000E+01    0.000000E+00    0.000000E+00    0.000000E+00
   1.225000E-01    2.500000E-03    1.500000E+01    0.000000E+00    0.000000E+00    0.000000E+00
   1.275000E-01    2.500000E-03    1.500000E+01    0.000000E+00    0.000000E+00    0.000000E+00
   1.325000E-01    2.500000E-03    1.500000E+01    0.000000E+00    0.000000E+00    0.000000E+00
   1.375000E-01    2.500000E-03    1.500000E+01    0.000000E+00    0.000000E+00    0.000000E+00
   1.425000E-01    2.500000E-03    1.500000E+01    0.000000E+00    0.000000E+00    0.000000E+00
   1.475000E-01    2.500000E-03    1.500000E+01    0.000000E+00    0.000000E+00    0.000000E+00
   1.525000E-01    2.500000E-03    1.500000E+01    0.000000E+00    0.000000E+00    0.000000E+00
   1.575000E-01    2.500000E-03    1.500000E+01    0.000000E+00    0.000000E+00    0.000000E+00
   1.625000E-01    2.500000E-03    1.500000E+01    0.000000E+00    0.000000E+00    0.000000E+00
   1.675000E-01    2.500000E-03    1.500000E+01    0.000000E+00    0.000000E+00    0.000000E+00
   1.725000E-01    2.500000E-03    1.500000E+01    0.000000E+00    0.000000E+00    0.000000E+00
   1.775000E-01    2.500000E-03    1.500000E+01    0.000000E+00    0.000000E+00    0.000000E+00
   1.825000E-01    2.500000E-03    1.500000E+01    0.000000E+00    0.000000E+00    0.000000E+00
   1.875000E-01    2.500000E-03    1.500000E+01    0.000000E+00    0.000000E+00    0.000000E+00
   1.925000E-01    2.500000E-03    1.500000E+01    0.000000E+00    0.000000E+00    0.000000E+00
   1.975000E-01    2.500000E-03    1.500000E+01    0.000000E+00    0.000000E+00    0.000000E+00
   2.025000E-01    2.500000E-03    1.500000E+01    0.000000E+00    0.000000E+00    0.000000E+00
   2.075000E-01    2.500000E-03    1.500000E+01    0.000000E+00    0.000000E+00    0.000000E+00
   2.125000E-01    2.500000E-03    1.500000E+01    0.000000E+00    0.000000E+00    0.000000E+00
   2.175000E-01    2.500000E-03    1.500000E+01    0.000000E+00    0.000000E+00    0.000000E+00
   2.225000E-01    2.500000E-03    1.500000E+01    0.000000E+00    0.000000E+00    0.000000E+00
   2.275000E-01    2.500000E-03    1.500000E+01    0.000000E+00    0.000000E+00    0.000000E+00
   2.325000E-01    2.500000E-03    1.500000E+01    0.000000E+00    0.000000E+00    0.000000E+00
   2.375000E-01    2.500000E-03    1.500000E+01    0.000000E+00    0.000000E+00    0.000000E+00
   2.425000E-01    2.500000E-03    1.500000E+01    0.000000E+00    0.000000E+00    0.000000E+00
   2.475000E-01    2.500000E-03    1.500000E+01    0.000000E+00    0.000000E+00    0.000000E+00
   2.525000E-01    2.500000E-03    1.500000E+01    0.000000E+00    0.000000E+00    0.000000E+00
   2.575000E-01    2.500000E-03    1.500000E+01    0.000000E+00    0.000000E+00    0.000000E+00
   2.625000E-01    2.500000E-03    1.500000E+01    0.000000E+00    0.000000E+00    0.000000E+00
   2.675000E-01    2.500000E-03    1.500000E+01    0.000000E+00    0.000000E+00    0.000000E+00
   2.725000E-01    2.500000E-03    1.500000E+01    0.000000E+00    0.000000E+00    0.000000E+00
   2.775000E-01    2.500000E-03    1.500000E+01    0.000000E+00    0.000000E+00    0.000000E+00
   2.825000E-01    2.500000E-03    1.500000E+01    0.000000E+00    0.000000E+00    0.000000E+00
   2.875000E-01    2.500000E-03    1.500000E+01    0.000000E+00    0.000000E+00    0.000000E+00
   2.925000E-01    2.500000E-03    1.500000E+01    0.000000E+00    0.000000E+00    0.000000E+00
   2.975000E-01    2.500000E-03    1.500000E+01    0.000000E+00    0.000000E+00    0.000000E+00
   3.025000E-01    2.500000E-03    1.500000E+01    0.000000E+00    0.000000E+00    0.000000E+00
   3.075000E-01    2.500000E-03    1.500000E+01    0.000000E+00    0.000000E+00    0.000000E+00
   3.125000E-01    2.500000E-03    1.500000E+01    0.000000E+00    0.000000E+00    0.000000E+00
   3.175000E-01    2.500000E-03    1.500000E+01    0.000000E+00    0.000000E+00    0.000000E+00
   3.225000E-01    2.500000E-03    1.500000E+01    0.000000E+00    0.000000E+00    0.000000E+00
   3.275000E-01    2.500000E-03    1.500000E+01    0.000000E+00    0.000000E+00    0.000000E+00
   3.325000E-01    2.500000E-03    1.500000E+01    0.000000E+00    0.000000E+00    0.000000E+00
   3.375000E-01    2.500000E-03    1.500000E+01    0.000000E+00    0.000000E+00    0.000000E+00
   3.425000E-01    2.500000E-03    1.500000E+01    0.000000E+00    0.000000E+00    0.000000E+00
   3.475000E-01    2.500000E-03    1.500000E+01    0.000000E+00    0.000000E+00    0.000000E+00
   3.525000E-01    2.500000E-03    1.500000E+01    0.000000E+00    0.000000E+00    0.000000E+00
   3.575000E-01    2.500000E-03    1.500000E+01    0.000000E+00    0.000000E+00    0.000000E+00
   3.625000E-01    2.500000E-03    1.500000E+01    0.000000E+00    0.000000E+00    0.000000E+00
   3.675000E-01    2.500000E-03    1.500000E+01    0.000000E+00    0.000000E+00    0.000000E+00
   3.725000E-01    2.500000E-03    1.500000E+01    0.000000E+00    0.000000E+00    0.000000E+00
   3.775000E-01    2.500000E-03    1.500000E+01    0.000000E+00    0.000000E+00    0.000000E+00
   3.825000E-01    2.500000E-03    1.500000E+01    0.000000E+00    0.000000E+00    0.000000E+00
   3.875000E-01    2.500000E-03    1.500000E+01    0.000000E+00    0.000000E+00    0.000000E+00
   3.925000E-01    2.500000E-03    1.500000E+01    0.000000E+00    0.000000E+00    0.000000E+00
   3.975000E-01    2.500000E-03    1.500000E+01    0.000000E+00    0.000000E+00    0.000000E+00
   4.025000E-01    2.500000E-03    1.500000E+01    0.000000E+00    0.000000E+00    0.000000E+00
   4.075000E-01    2.500000E-03    1.500000E+01    0.000000E+00    0.000000E+00    0.000000E+00
   4.125000E-01    2.500000E-03    1.500000E+01    0.000000E+00    0.000000E+00    0.000000E+00
   4.175000E-01    2.500000E-03    1.500000E+01    0.000000E+00    0.000000E+00    0.000000E+00
   4.225000E-01    2.500000E-03    1.500000E+01    0.000000E+00    0.000000E+00    0.000000E+00
   4.275000E-01    2.500000E-03    1.500000E+01    0.000000E+00    0.000000E+00    0.000000E+00
   4.325000E-01    2.500000E-03    1.500000E+01    0.000000E+00    0.000000E+00    0.000000E+00
   4.375000E-01    2.500000E-03    1.500000E+01    0.000000E+00    0.000000E+00    0.000000E+00
   4.425000E-01    2.500000E-03    1.500000E+01    0.000000E+00    0.000000E+00    0.000000E+00
   4.475000E-01    2.500000E-03    1.500000E+01    0.000000E+00    0.000000E+00    0.000000E+00
   4.525000E-01    2.500000E-03    1.500000E+01    0.000000E+00    0.000000E+00    0.000000E+00
   4.575000E-01    2.500000E-03    1.500000E+01    0.000000E+00    0.000000E+00    0.000000E+00
   4.625000E-01    2.500000E-03    1.500000E+01    0.000000E+00    0.000000E+00    0.000000E+00
   4.675000E-01    2.500000E-03    1.500000E+01    0.000000E+00    0.000000E+00    0.000000E+00
   4.725000E-01    2.500000E-03    1.500000E+01    0.000000E+00    0.000000E+00    0.000000E+00
   4.775000E-01    2.500000E-03    1.500000E+01    0.000000E+00    0.000000E+00    0.000000E+00
   4.825000E-01    2.500000E-03    1.500000E+01    0.000000E+00    0.000000E+00    0.000000E+00
   4.875000E-01    2.500000E-03    1.500000E+01    0.000000E+00    0.000000E+00    0.000000E+00
   4.925000E-01    2.500000E-03    1.500000E+01    0.000000E+00    0.000000E+00    0.000000E+00
   4.975000E-01    2.500000E-03    1.500000E+01    0.000000E+00    0.000000E+00    0.000000E+00
   5.025000E-01    2.500000E-03    1.500000E+01    0.000000E+00    0.000000E+00    0.000000E+00
   5.075000E-01    2.500000E-03    1.500000E+01    0.000000E+00    0.000000E+00    0.000000E+00
   5.125000E-01    2.500000E-03    1.500000E+01    0.000000E+00    0.000000E+00    0.000000E+00
   5.175000E-01    2.500000E-03    1.500000E+01    0.000000E+00    0.000000E+00    0.000000E+00
   5.225000E-01    2.500000E-03    1.500000E+01    0.000000E+00    0.000000E+00    0.000000E+00
   5.275000E-01    2.500000E-03    1.500000E+01    0.000000E+00    0.000000E+00    0.000000E+00
   5.325000E-01    2.500000E-03    1.500000E+01    0.000000E+00    0.000000E+00    0.000000E+00
   5.375000E-01    2.500000E-03    1.500000E+01    0.000000E+00    0.000000E+00    0.000000E+00
   5.425000E-01    2.500000E-03    1.500000E+01    0.000000E+00    0.000000E+00    0.000000E+00
   5.475000E-01    2.500000E-03    1.500000E+01    0.000000E+00    0.000000E+00    0.000000E+00
   5.525000E-01    2.500000E-03    1.500000E+01    0.000000E+00    0.000000E+00    0.000000E+00
   5.575000E-01    2.500000E-03    1.500000E+01    0.000000E+00    0.000000E+00    0.000000E+00
   5.625000E-01    2.500000E-03    1.500000E+01    0.000000E+00    0.000000E+00    0.000000E+00
   5.675000E-01    2.500000E-03    1.500000E+01    0.000000E+00    0.000000E+00    0.000000E+00
   5.725000E-01    2.500000E-03    1.500000E+01    0.000000E+00    0.000000E+00    0.000000E+00
   5.775000E-01    2.500000E-03    1.500000E+01    0.000000E+00    0.000000E+00    0.000000E+00
   5.825000E-01    2.500000E-03    1.500000E+01    0.000000E+00    0.000000E+00    0.000000E+00
   5.875000E-01    2.500000E-03    1.500000E+01    0.000000E+00    0.000000E+00    0.000000E+00
   5.925000E-01    2.500000E-03    1.500000E+01    0.000000E+00    0.000000E+00    0.000000E+00
   5.975000E-01    2.500000E-03    1.500000E+01    0.000000E+00    0.000000E+00    0.000000E+00
   6.025000E-01    2.500000E-03    1.500000E+01    0.000000E+00    0.000000E+00    0.000000E+00
   6.075000E-01    2.500000E-03    1.500000E+01    0.000000E+00    0.000000E+00    0.000000E+00
   6.125000E-01    2.500000E-03    1.500000E+01    0.000000E+00    0.000000E+00    0.000000E+00
   6.175000E-01    2.500000E-03    1.500000E+01    0.000000E+00    0.000000E+00    0.000000E+00
   6.225000E-01    2.500000E-03    1.500000E+01    0.000000E+00    0.000000E+00    0.000000E+00
   6.275000E-01    2.500000E-03    1.500000E+01    0.000000E+00    0.000000E+00    0.000000E+00
   6.325000E-01    2.500000E-03    1.500000E+01    0.000000E+00    0.000000E+00    0.000000E+00
   6.375000E-01    2.500000E-03    1.500000E+01    0.000000E+00    0.000000E+00    0.000000E+00
   6.425000E-01    2.500000E-03    1.500000E+01    0.000000E+00    0.000000E+00    0.000000E+00
   6.475000E-01    2.500000E-03    1.500000E+01    0.000000E+00    0.000000E+00    0.000000E+00
   6.525000E-01    2.500000E-03    1.500000E+01    0.000000E+00    0.000000E+00    0.000000E+00
   6.575000E-01    2.500000E-03    1.500000E+01    0.000000E+00    0.000000E+00    0.000000E+00
   6.625000E-01    2.500000E-03    1.500000E+01    0.000000E+00    0.000000E+00    0.000000E+00
   6.675000E-01    2.500000E-03    1.500000E+01    0.000000E+00    0.000000E+00    0.000000E+00
   6.725000E-01    2.500000E-03    1.500000E+01    0.000000E+00    0.000000E+00    0.000000E+00
   6.775000E-01    2.500000E-03    1.500000E+01    0.000000E+00    0.000000E+00    0.000000E+00
   6.825000E-01    2.500000E-03    1.500000E+01    0.000000E+00    0.000000E+00    0.000000E+00
   6.875000E-01    2.500000E-03    1.500000E+01    0.000000E+00    0.000000E+00    0.000000E+00
   6.925000E-01    2.500000E-03    1.500000E+01    0.000000E+00    0.000000E+00    0.000000E+00
   6.975000E-01    2.500000E-03    1.500000E+01    0.000000E+00    0.000000E+00    0.000000E+00
   7.025000E-01    2.500000E-03    1.500000E+01    0.000000E+00    0.000000E+00    0.000000E+00
   7.075000E-01    2.500000E-03    1.500000E+01    0.000000E+00    0.000000E+00    0.000000E+00
   7.125000E-01    2.500000E-03    1.500000E+01    0.000000E+00    0.000000E+00    0.000000E+00
   7.175000E-01    2.500000E-03    1.500000E+01    0.000000E+00    0.000000E+00    0.000000E+00
   7.225000E-01    2.500000E-03    1.500000E+01    0.000000E+00    0.000000E+00    0.000000E+00
   7.275000E-01    2.500000E-03    1.500000E+01    0.000000E+00    0.000000E+00    0.000000E+00
   7.325000E-01    2.500000E-03    1.500000E+01    0.000000E+00    0.000000E+00    0.000000E+00
   7.375000E-01    2.500000E-03    1.500000E+01    0.000000E+00    0.000000E+00    0.000000E+00
   7.425000E-01    2.500000E-03    1.500000E+01    0.000000E+00    0.000000E+00    0.000000E+00
   7.475000E-01    2.500000E-03    1.500000E+01    0.000000E+00    0.000000E+00    0.000000E+00
   7.525000E-01    2.500000E-03    1.500000E+01    0.000000E+00    0.000000E+00    0.000000E+00
   7.575000E-01    2.500000E-03    1.500000E+01    0.000000E+00    0.000000E+00    0.000000E+00
   7.625000E-01    2.500000E-03    1.500000E+01    0.000000E+00    0.000000E+00    0.000000E+00
   7.675000E-01    2.500000E-03    1.500000E+01    0.000000E+00    0.000000E+00    0.000000E+00
   7.725000E-01    2.500000E-03    1.500000E+01    0.000000E+00    0.000000E+00    0.000000E+00
   7.775000E-01    2.500000E-03    1.500000E+01    0.000000E+00    0.000000E+00    0.000000E+00
   7.825000E-01    2.500000E-03    1.500000E+01    0.000000E+00    0.000000E+00    0.000000E+00
   7.875000E-01    2.500000E-03    1.500000E+01    0.000000E+00    0.000000E+00    0.000000E+00
   7.925000E-01    2.500000E-03    1.500000E+01    0.000000E+00    0.000000E+00    0.000000E+00
   7.975000E-01    2.500000E-03    1.500000E+01    0.000000E+00    0.000000E+00    0.000000E+00
   8.025000E-01    2.500000E-03    1.500000E+01    0.000000E+00    0.000000E+00    0.000000E+00
   8.075000E-01    2.500000E-03    1.500000E+01    0.000000E+00    0.000000E+00    0.000000E+00
   8.125000E-01    2.500000E-03    1.500000E+01    0.000000E+00    0.000000E+00    0.000000E+00
   8.175000E-01    2.500000E-03    1.500000E+01    0.000000E+00    0.000000E+00    0.000000E+00
   8.225000E-01    2.500000E-03    1.500000E+01    0.000000E+00    0.000000E+00    0.000000E+00
   8.275000E-01    2.500000E-03    1.500000E+01    0.000000E+00    0.000000E+00    0.000000E+00
   8.325000E-01    2.500000E-03    1.500000E+01    0.000000E+00    0.000000E+00    0.000000E+00
   8.375000E-01    2.500000E-03    1.500000E+01    0.000000E+00    0.000000E+00    0.000000E+00
   8.425000E-01    2.500000E-03    1.500000E+01    0.000000E+00    0.000000E+00    0.000000E+00
   8.475000E-01    2.500000E-03    1.500000E+01    0.000000E+00    0.000000E+00    0.000000E+00
   8.525000E-01    2.500000E-03    1.500000E+01    0.000000E+00    0.000000E+00    0.000000E+00
   8.575000E-01    2.500000E-03    1.500000E+01    0.000000E+00    0.000000E+00    0.000000E+00
   8.625000E-01    2.500000E-03    1.500000E+01    0.000000E+00    0.000000E+00    0.000000E+00
   8.675000E-01    2.500000E-03    1.500000E+01    0.000000E+00    0.000000E+00    0.000000E+00
   8.725000E-01    2.500000E-03    1.500000E+01    0.000000E+00    0.000000E+00    0.000000E+00
   8.775000E-01    2.500000E-03    1.500000E+01    0.000000E+00    0.000000E+00    0.000000E+00
   8.825000E-01    2.500000E-03    1.500000E+01    0.000000E+00    0.000000E+00    0.000000E+00
   8.875000E-01    2.500000E-03    1.500000E+01    0.000000E+00    0.000000E+00    0.000000E+00
   8.925000E-01    2.500000E-03    1.500000E+01    0.000000E+00    0.000000E+00    0.000000E+00
   8.975000E-01    2.500000E-03    1.500000E+01    0.000000E+00    0.000000E+00    0.000000E+00
   9.025000E-01    2.500000E-03    1.500000E+01    0.000000E+00    0.000000E+00    0.000000E+00
   9.075000E-01    2.500000E-03    1.500000E+01    0.000000E+00    0.000000E+00    0.000000E+00
   9.125000E-01    2.500000E-03    1.500000E+01    0.000000E+00    0.000000E+00    0.000000E+00
   9.175000E-01    2.500000E-03    1.500000E+01    0.000000E+00    0.000000E+00    0.000000E+00
   9.225000E-01    2.500000E-03    1.500000E+01    0.000000E+00    0.000000E+00    0.000000E+00
   9.275000E-01    2.500000E-03    1.500000E+01    0.000000E+00    0.000000E+00    0.000000E+00
   9.325000E-01    2.500000E-03    1.500000E+01    0.000000E+00    0.000000E+00    0.000000E+00
   9.375000E-01    2.500000E-03    1.500000E+01    0.000000E+00    0.000000E+00    0.000000E+00
   9.425000E-01    2.500000E-03    1.500000E+01    0.000000E+00    0.000000E+00    0.000000E+00
   9.475000E-01    2.500000E-03    1.500000E+01    0.000000E+00    0.000000E+00    0.000000E+00
   9.525000E-01    2.500000E-03    1.500000E+01    0.000000E+00    0.000000E+00    0.000000E+00
   9.575000E-01    2.500000E-03    1.500000E+01    0.000000E+00    0.000000E+00    0.000000E+00
   9.625000E-01    2.500000E-03    1.500000E+01    0.000000E+00    0.000000E+00    0.000000E+00
   9.675000E-01    2.500000E-03    1.500000E+01    0.000000E+00    0.000000E+00    0.000000E+00
   9.725000E-01    2.500000E-03    1.500000E+01    0.000000E+00    0.000000E+00    0.000000E+00
   9.775000E-01    2.500000E-03    1.500000E+01    0.000000E+00    0.000000E+00    0.000000E+00
   9.825000E-01    2.500000E-03    1.500000E+01    0.000000E+00    0.000000E+00    0.000000E+00
   9.875000E-01    2.500000E-03    1.500000E+01    0.000000E+00    0.000000E+00    0.000000E+00
   9.925000E-01    2.500000E-03    1.500000E+01    0.000000E+00    0.000000E+00    0.000000E+00
   9.975000E-01    2.500000E-03    1.500000E+01    0.000000E+00    0.000000E+00    0.000000E+00
   1.002500E+00    2.500000E-03    1.500000E+01    0.000000E+00    0.000000E+00    0.000000E+00
   1.007500E+00    2.500000E-03    5.210610E+00    0.000000E+00    0.000000E+00    0.000000E+00
   2.500000E-03    7.500000E-03    0.000000E+00   -5.000000E+03    0.000000E+00    5.000000E+03
   7.500000E-03    7.500000E-03    7.465046E+00   -1.691566E+04    1.706239E+04    2.402634E+04
   1.250000E-02    7.500000E-03    1.041605E+01   -7.045887E+03    1.229284E+04    1.416892E+04
   1.750000E-02    7.500000E-03    1.180365E+01   -3.486457E+03    9.319050E+03    9.949878E+03
   2.250000E-02    7.500000E-03    1.256288E+01   -1.992107E+03    7.408996E+03    7.672139E+03
   2.750000E-02    7.500000E-03    1.303031E+01   -1.268701E+03    6.121463E+03    6.251552E+03
   3.250000E-02    7.500000E-03    1.334410E+01   -8.738306E+02    5.210891E+03    5.283651E+03
   3.750000E-02    7.500000E-03    1.356839E+01   -6.368894E+02    4.539458E+03    4.583918E+03
   4.250000E-02    7.500000E-03    1.373628E+01   -4.839939E+02    4.026926E+03    4.055907E+03
   4.750000E-02    7.500000E-03    1.386641E+01   -3.796594E+02    3.624475E+03    3.644305E+03
   5.250000E-02    7.500000E-03    1.397006E+01   -3.052829E+02    3.301079E+03    3.315165E+03
   5.750000E-02    7.500000E-03    1.405439E+01   -2.503824E+02    3.036223E+03    3.046529E+03
   6.250000E-02    7.500000E-03    1.412423E+01   -2.086924E+02    2.815856E+03    2.823579E+03
   6.750000E-02    7.500000E-03    1.418290E+01   -1.762821E+02    2.630060E+03    2.635961E+03
   7.250000E-02    7.500000E-03    1.423278E+01   -1.505832E+02    2.471642E+03    2.476225E+03
   7.750000E-02    7.500000E-03    1.427562E+01   -1.298603E+02    2.335266E+03    2.338874E+03
   8.250000E-02    7.500000E-03    1.431274E+01   -1.129060E+02    2.216891E+03    2.219764E+03
   8.750000E-02    7.500000E-03    1.434515E+01   -9.885910E+01    2.113401E+03    2.115712E+03
   9.250000E-02    7.500000E-03    1.437362E+01   -8.709187E+01    2.022359E+03    2.024233E+03
   9.750000E-02    7.500000E-03    1.439877E+01   -7.713782E+01    1.941825E+03    1.943357E+03
   1.025000E-01    7.500000E-03    1.442112E+01   -6.864444E+01    1.870243E+03    1.871503E+03
   1.075000E-01    7.500000E-03    1.444104E+01   -6.134125E+01    1.806345E+03    1.807387E+03
   1.125000E-01    7.500000E-03    1.445889E+01   -5.501789E+01    1.749090E+03    1.749955E+03
   1.175000E-01    7.500000E-03    1.447492E+01   -4.950873E+01    1.697613E+03    1.698335E+03
   1.225000E-01    7.500000E-03    1.448937E+01   -4.468188E+01    1.651192E+03    1.651797E+03
   1.275000E-01    7.500000E-03    1.450244E+01   -4.043127E+01    1.609218E+03    1.609726E+03
   1.325000E-01    7.500000E-03    1.451427E+01   -3.667079E+01    1.571172E+03    1.571600E+03
   1.375000E-01    7.500000E-03    1.452502E+01   -3.332992E+01    1.536612E+03    1.536973E+03
   1.425000E-01    7.500000E-03    1.453479E+01   -3.035046E+01    1.505158E+03    1.505464E+03
   1.475000E-01    7.500000E-03    1.454370E+01   -2.768401E+01    1.476481E+03    1.476741E+03
   1.525000E-01    7.500000E-03    1.455184E+01   -2.529005E+01    1.450295E+03    1.450515E+03
   1.575000E-01    7.500000E-03    1.455928E+01   -2.313445E+01    1.426349E+03    1.426537E+03
   1.625000E-01    7.500000E-03    1.456609E+01   -2.118830E+01    1.404425E+03    1.404585E+03
   1.675000E-01    7.500000E-03    1.457232E+01   -1.942693E+01    1.384330E+03    1.384466E+03
   1.725000E-01    7.500000E-03    1.457805E+01   -1.782922E+01    1.365891E+03    1.366008E+03
   1.775000E-01    7.500000E-03    1.458330E+01   -1.637700E+01    1.348958E+03    1.349058E+03
   1.825000E-01    7.500000E-03    1.458813E+01   -1.505453E+01    1.333396E+03    1.333481E+03
   1.875000E-01    7.500000E-03    1.459257E+01   -1.384815E+01    1.319082E+03    1.319155E+03
   1.925000E-01    7.500000E-03    1.459666E+01   -1.274594E+01    1.305909E+03    1.305971E+03
   1.975000E-01    7.500000E-03    1.460042E+01   -1.173747E+01    1.293780E+03    1.293833E+03
   2.025000E-01    7.500000E-03    1.460389E+01   -1.081356E+01    1.282606E+03    1.282652E+03
   2.075000E-01    7.500000E-03    1.460708E+01   -9.966118E+00    1.272309E+03    1.272348E+03
   2.125000E-01    7.500000E-03    1.461002E+01   -9.187972E+00    1.262815E+03    1.262849E+03
   2.175000E-01    7.500000E-03    1.461274E+01   -8.472764E+00    1.254061E+03    1.254089E+03
   2.225000E-01    7.500000E-03    1.461524E+01   -7.814825E+00    1.245986E+03    1.246011E+03
   2.275000E-01    7.500000E-03    1.461755E+01   -7.209095E+00    1.238537E+03    1.238558E+03
   2.325000E-01    7.500000E-03    1.461968E+01   -6.651038E+00    1.231664E+03    1.231682E+03
   2.375000E-01    7.500000E-03    1.462164E+01   -6.136582E+00    1.225323E+03    1.225338E+03
   2.425000E-01    7.500000E-03    1.462346E+01   -5.662060E+00    1.219471E+03    1.219484E+03
   2.475000E-01    7.500000E-03    1.462513E+01   -5.224163E+00    1.214071E+03    1.214082E+03
   2.525000E-01    7.500000E-03    1.462668E+01   -4.819897E+00    1.209089E+03    1.209098E+03
   2.575000E-01    7.500000E-03    1.462810E+01   -4.446549E+00    1.204492E+03    1.204500E+03
   2.625000E-01    7.500000E-03    1.462941E+01   -4.101654E+00    1.200251E+03    1.200258E+03
   2.675000E-01    7.500000E-03    1.463062E+01   -3.782969E+00    1.196338E+03    1.196344E+03
   2.725000E-01    7.500000E-03    1.463174E+01   -3.488448E+00    1.192730E+03    1.192735E+03
   2.775000E-01    7.500000E-03    1.463277E+01   -3.216224E+00    1.189403E+03    1.189408E+03
   2.825000E-01    7.500000E-03    1.463372E+01   -2.964587E+00    1.186336E+03    1.186340E+03
   2.875000E-01    7.500000E-03    1.463460E+01   -2.731974E+00    1.183509E+03    1.183512E+03
   2.925000E-01    7.500000E-03    1.463541E+01   -2.516947E+00    1.180903E+03    1.180906E+03
   2.975000E-01    7.500000E-03    1.463615E+01   -2.318188E+00    1.178503E+03    1.178506E+03
   3.025000E-01    7.500000E-03    1.463683E+01   -2.134483E+00    1.176293E+03    1.176295E+03
   3.075000E-01    7.500000E-03    1.463746E+01   -1.964716E+00    1.174258E+03    1.174260E+03
   3.125000E-01    7.500000E-03    1.463804E+01   -1.807857E+00    1.172386E+03    1.172387E+03
   3.175000E-01    7.500000E-03    1.463858E+01   -1.662957E+00    1.170662E+03    1.170664E+03
   3.225000E-01    7.500000E-03    1.463907E+01   -1.529139E+00    1.169078E+03    1.169079E+03
   3.275000E-01    7.500000E-03    1.463952E+01   -1.405594E+00    1.167620E+03    1.167621E+03
   3.325000E-01    7.500000E-03    1.463993E+01   -1.291573E+00    1.166281E+03    1.166282E+03
   3.375000E-01    7.500000E-03    1.464031E+01   -1.186385E+00    1.165051E+03    1.165051E+03
   3.425000E-01    7.500000E-03    1.464066E+01   -1.089390E+00    1.163921E+03    1.163921E+03
   3.475000E-01    7.500000E-03    1.464098E+01   -9.999961E-01    1.162883E+03    1.162884E+03
   3.525000E-01    7.500000E-03    1.464128E+01   -9.176559E-01    1.161931E+03    1.161931E+03
   3.575000E-01    7.500000E-03    1.464155E+01   -8.418631E-01    1.161057E+03    1.161057E+03
   3.625000E-01    7.500000E-03    1.464180E+01   -7.721495E-01    1.160256E+03    1.160256E+03
   3.675000E-01    7.500000E-03    1.464202E+01   -7.080824E-01    1.159520E+03    1.159521E+03
   3.725000E-01    7.500000E-03    1.464223E+01   -6.492622E-01    1.158846E+03    1.158846E+03
   3.775000E-01    7.500000E-03    1.464242E+01   -5.953202E-01    1.158228E+03    1.158228E+03
   3.825000E-01    7.500000E-03    1.464260E+01   -5.459166E-01    1.157661E+03    1.157661E+03
   3.875000E-01    7.500000E-03    1.464276E+01   -5.007389E-01    1.157141E+03    1.157141E+03
   3.925000E-01    7.500000E-03    1.464291E+01   -4.594999E-01    1.156664E+03    1.156664E+03
   3.975000E-01    7.500000E-03    1.464304E+01   -4.219366E-01    1.156226E+03    1.156227E+03
   4.025000E-01    7.500000E-03    1.464317E+01   -3.878087E-01    1.155824E+03    1.155824E+03
   4.075000E-01    7.500000E-03    1.464328E+01   -3.568975E-01    1.155454E+03    1.155454E+03
   4.125000E-01    7.500000E-03    1.464339E+01   -3.290047E-01    1.155113E+03    1.155114E+03
   4.175000E-01    7.500000E-03    1.464348E+01   -3.039516E-01    1.154799E+03    1.154799E+03
   4.225000E-01    7.500000E-03    1.464357E+01   -2.815781E-01    1.154508E+03    1.154508E+03
   4.275000E-01    7.500000E-03    1.464366E+01   -2.617421E-01    1.154238E+03    1.154238E+03
   4.325000E-01    7.500000E-03    1.464374E+01   -2.443186E-01    1.153987E+03    1.153987E+03
   4.375000E-01    7.500000E-03    1.464381E+01   -2.291995E-01    1.153751E+03    1.153751E+03
   4.425000E-01    7.500000E-03    1.464388E+01   -2.162926E-01    1.153530E+03    1.153530E+03
   4.475000E-01    7.500000E-03    1.464394E+01   -2.055216E-01    1.153320E+03    1.153320E+03
   4.525000E-01    7.500000E-03    1.464400E+01   -1.968254E-01    1.153120E+03    1.153120E+03
   4.575000E-01    7.500000E-03    1.464406E+01   -1.901581E-01    1.152928E+03    1.152928E+03
   4.625000E-01    7.500000E-03    1.464412E+01   -1.854885E-01    1.152741E+03    1.152741E+03
   4.675000E-01    7.500000E-03    1.464418E+01   -1.827999E-01    1.152558E+03    1.152558E+03
   4.725000E-01    7.500000E-03    1.464423E+01   -1.820902E-01    1.152377E+03    1.152377E+03
   4.775000E-01    7.500000E-03    1.464429E+01   -1.833715E-01    1.152195E+03    1.152195E+03
   4.825000E-01    7.500000E-03    1.464435E+01   -1.866703E-01    1.152011E+03    1.152011E+03
   4.875000E-01    7.500000E-03    1.464440E+01   -1.920273E-01    1.151823E+03    1.151823E+03
   4.925000E-01    7.500000E-03    1.464446E+01   -1.994973E-01    1.151628E+03    1.151628E+03
   4.975000E-01    7.500000E-03    1.464453E+01   -2.091494E-01    1.151425E+03    1.151425E+03
   5.025000E-01    7.500000E-03    1.464459E+01   -2.210670E-01    1.151211E+03    1.151211E+03
   5.075000E-01    7.500000E-03    1.464466E+01   -2.353479E-01    1.150984E+03    1.150984E+03
   5.125000E-01    7.500000E-03    1.464474E+01   -2.521040E-01    1.150742E+03    1.150742E+03
   5.175000E-01    7.500000E-03    1.464482E+01   -2.714619E-01    1.150482E+03    1.150482E+03
   5.225000E-01    7.500000E-03    1.464490E+01   -2.935624E-01    1.150201E+03    1.150201E+03
   5.275000E-01    7.500000E-03    1.464500E+01   -3.185608E-01    1.149896E+03    1.149896E+03
   5.325000E-01    7.500000E-03    1.464510E+01   -3.466271E-01    1.149565E+03    1.149565E+03
   5.375000E-01    7.500000E-03    1.464521E+01   -3.779453E-01    1.149205E+03    1.149205E+03
   5.425000E-01    7.500000E-03    1.464533E+01   -4.127141E-01    1.148812E+03    1.148812E+03