TITLE = "Convection Diffusion Initial Conditions"
VARIABLES = "X", "Y", "Pe"
ZONE T="Zone 1", I=27, J=27, DATAPACKING=POINT, ZONETYPE=ORDERED
   0.000000E+00    0.000000E+00    0.000000E+00
   6.863085E-03    0.000000E+00    0.000000E+00
   2.302756E-02    0.000000E+00    0.000000E+00
   4.486176E-02    0.000000E+00    0.000000E+00
   7.414954E-02    0.000000E+00    0.000000E+00
   1.130712E-01    0.000000E+00    0.000000E+00
   1.641615E-01    0.000000E+00    0.000000E+00
   2.301531E-01    0.000000E+00    0.000000E+00
   3.136459E-01    0.000000E+00    0.000000E+00
   4.165693E-01    0.000000E+00    0.000000E+00
   5.394704E-01    0.000000E+00    0.000000E+00
   6.807950E-01    0.000000E+00    0.000000E+00
   8.364541E-01    0.000000E+00    0.000000E+00
   9.999997E-01    0.000000E+00    0.000000E+00
   1.163546E+00    0.000000E+00    0.000000E+00
   1.319205E+00    0.000000E+00    0.000000E+00
   1.460529E+00    0.000000E+00    0.000000E+00
   1.583430E+00    0.000000E+00    0.000000E+00
   1.686354E+00    0.000000E+00    0.000000E+00
   1.769847E+00    0.000000E+00    0.000000E+00
   1.835838E+00    0.000000E+00    0.000000E+00
   1.886929E+00    0.000000E+00    0.000000E+00
   1.925850E+00    0.000000E+00    0.000000E+00
   1.955138E+00    0.000000E+00    0.000000E+00
   1.976973E+00    0.000000E+00    0.000000E+00
   1.993137E+00    0.000000E+00    0.000000E+00
   2.000000E+00    0.000000E+00    0.000000E+00
   0.000000E+00    6.863085E-03    0.000000E+00
   6.863085E-03    6.863085E-03    4.204653E-07
   2.302756E-02    6.863085E-03    6.471930E-07
   4.486176E-02    6.863085E-03    6.051354E-05
   7.414954E-02    6.863085E-03    2.382333E-04
   1.130712E-01    6.863085E-03    5.479119E-04
   1.641615E-01    6.863085E-03    9.432544E-04
   2.301531E-01    6.863085E-03    1.236793E-03
   3.136459E-01    6.863085E-03    8.891321E-04
   4.165693E-01    6.863085E-03    1.283597E-03
   5.394704E-01    6.863085E-03    6.132871E-03
   6.807950E-01    6.863085E-03    1.101964E-02
   8.364541E-01    6.863085E-03    1.207404E-02
   9.999997E-01    6.863085E-03    9.669930E-03
   1.163546E+00    6.863085E-03    6.197981E-03
   1.319205E+00    6.863085E-03    3.417683E-03
   1.460529E+00    6.863085E-03    1.988027E-03
   1.583430E+00    6.863085E-03    2.070044E-03
   1.686354E+00    6.863085E-03    4.933318E-03
   1.769847E+00    6.863085E-03    1.211010E-02
   1.835838E+00    6.863085E-03    5.268962E-02
   1.886929E+00    6.863085E-03    1.907891E+00
   1.925850E+00    6.863085E-03    5.916911E-03
   1.955138E+00    6.863085E-03    2.351667E-02
   1.976973E+00    6.863085E-03    5.862623E-02
   1.993137E+00    6.863085E-03    1.696918E-01
   2.000000E+00    6.863085E-03    0.000000E+00
   0.000000E+00    2.302756E-02    0.000000E+00
   6.863085E-03    2.302756E-02    1.812657E-06
   2.302756E-02    2.302756E-02    1.473305E-06
   4.486176E-02    2.302756E-02    1.473291E-04
   7.414954E-02    2.302756E-02    6.175398E-04
   1.130712E-01    2.302756E-02    1.529360E-03
   1.641615E-01    2.302756E-02    2.827822E-03
   2.301531E-01    2.302756E-02    4.118439E-03
   3.136459E-01    2.302756E-02    4.098744E-03
   4.165693E-01    2.302756E-02    1.250211E-03
   5.394704E-01    2.302756E-02    1.796214E-02
   6.807950E-01    2.302756E-02    3.840868E-02
   8.364541E-01    2.302756E-02    4.382719E-02
   9.999997E-01    2.302756E-02    3.486396E-02
   1.163546E+00    2.302756E-02    2.170532E-02
   1.319205E+00    2.302756E-02    1.121503E-02
   1.460529E+00    2.302756E-02    5.658663E-03
   1.583430E+00    2.302756E-02    3.903121E-03
   1.686354E+00    2.302756E-02    5.780871E-03
   1.769847E+00    2.302756E-02    1.062045E-02
   1.835838E+00    2.302756E-02    1.992315E-01
   1.886929E+00    2.302756E-02    1.783803E+00
   1.925850E+00    2.302756E-02    1.428558E-03
   1.955138E+00    2.302756E-02    3.454243E-02
   1.976973E+00    2.302756E-02    4.071831E-02
   1.993137E+00    2.302756E-02    8.186589E-02
   2.000000E+00    2.302756E-02    0.000000E+00
   0.000000E+00    4.486176E-02    0.000000E+00
   6.863085E-03    4.486176E-02    5.981251E-05
   2.302756E-02    4.486176E-02    1.443128E-04
   4.486176E-02    4.486176E-02    1.510225E-06
   7.414954E-02    4.486176E-02    5.658377E-04
   1.130712E-01    4.486176E-02    1.867359E-03
   1.641615E-01    4.486176E-02    4.103424E-03
   2.301531E-01    4.486176E-02    7.197716E-03
   3.136459E-01    4.486176E-02    9.981983E-03
   4.165693E-01    4.486176E-02    5.116030E-03
   5.394704E-01    4.486176E-02    2.515421E-02
   6.807950E-01    4.486176E-02    7.015627E-02
   8.364541E-01    4.486176E-02    8.416280E-02
   9.999997E-01    4.486176E-02    6.761759E-02
   1.163546E+00    4.486176E-02    4.154369E-02
   1.319205E+00    4.486176E-02    1.984125E-02
   1.460529E+00    4.486176E-02    7.441946E-03
   1.583430E+00    4.486176E-02    1.000396E-03
   1.686354E+00    4.486176E-02    1.378284E-02
   1.769847E+00    4.486176E-02    1.646868E-02
   1.835838E+00    4.486176E-02    3.703408E-01
   1.886929E+00    4.486176E-02    1.616879E+00
   1.925850E+00    4.486176E-02    3.456582E-02
   1.955138E+00    4.486176E-02    1.727112E-02
   1.976973E+00    4.486176E-02    2.079873E-02
   1.993137E+00    4.486176E-02    9.377646E-02
   2.000000E+00    4.486176E-02    0.000000E+00
   0.000000E+00    7.414954E-02    0.000000E+00
   6.863085E-03    7.414954E-02    2.382777E-04
   2.302756E-02    7.414954E-02    6.183980E-04
   4.486176E-02    7.414954E-02    5.775554E-04
   7.414954E-02    7.414954E-02    2.709723E-05
   1.130712E-01    7.414954E-02    1.623737E-03
   1.641615E-01    7.414954E-02    5.148501E-03
   2.301531E-01    7.414954E-02    1.136522E-02
   3.136459E-01    7.414954E-02    1.961538E-02
   4.165693E-01    7.414954E-02    1.706306E-02
   5.394704E-01    7.414954E-02    3.424264E-02
   6.807950E-01    7.414954E-02    1.176489E-01
   8.364541E-01    7.414954E-02    1.460861E-01
   9.999997E-01    7.414954E-02    1.220523E-01
   1.163546E+00    7.414954E-02    7.789204E-02
   1.319205E+00    7.414954E-02    3.735895E-02
   1.460529E+00    7.414954E-02    1.045974E-02
   1.583430E+00    7.414954E-02    1.203281E-02
   1.686354E+00    7.414954E-02    4.807569E-02
   1.769847E+00    7.414954E-02    2.834876E-02
   1.835838E+00    7.414954E-02    5.855114E-01
   1.886929E+00    7.414954E-02    1.424416E+00
   1.925850E+00    7.414954E-02    8.525395E-02
   1.955138E+00    7.414954E-02    5.752906E-02
   1.976973E+00    7.414954E-02    3.918227E-02
   1.993137E+00    7.414954E-02    1.616829E-01
   2.000000E+00    7.414954E-02    0.000000E+00
   0.000000E+00    1.130712E-01    0.000000E+00
   6.863085E-03    1.130712E-01    5.448101E-04
   2.302756E-02    1.130712E-01    1.535730E-03
   4.486176E-02    1.130712E-01    1.915017E-03
   7.414954E-02    1.130712E-01    1.732331E-03
   1.130712E-01    1.130712E-01    8.536437E-06
   1.641615E-01    1.130712E-01    4.970202E-03
   2.301531E-01    1.130712E-01    1.558740E-02
   3.136459E-01    1.130712E-01    3.160650E-02
   4.165693E-01    1.130712E-01    3.111237E-02
   5.394704E-01    1.130712E-01    5.218642E-02
   6.807950E-01    1.130712E-01    1.798686E-01
   8.364541E-01    1.130712E-01    2.247987E-01
   9.999997E-01    1.130712E-01    1.978494E-01
   1.163546E+00    1.130712E-01    1.358771E-01
   1.319205E+00    1.130712E-01    7.065085E-02
   1.460529E+00    1.130712E-01    1.938640E-02
   1.583430E+00    1.130712E-01    2.803093E-02
   1.686354E+00    1.130712E-01    9.020462E-02
   1.769847E+00    1.130712E-01    1.490446E-03
   1.835838E+00    1.130712E-01    8.156692E-01
   1.886929E+00    1.130712E-01    1.234685E+00
   1.925850E+00    1.130712E-01    1.345893E-01
   1.955138E+00    1.130712E-01    4.961764E-02
   1.976973E+00    1.130712E-01    1.400734E-01
   1.993137E+00    1.130712E-01    1.664158E-01
   2.000000E+00    1.130712E-01    0.000000E+00
   0.000000E+00    1.641615E-01    0.000000E+00
   6.863085E-03    1.641615E-01    9.187693E-04
   2.302756E-02    1.641615E-01    2.775813E-03
   4.486176E-02    1.641615E-01    4.011592E-03
   7.414954E-02    1.641615E-01    4.801717E-03
   1.130712E-01    1.641615E-01    3.538989E-03
   1.641615E-01    1.641615E-01    2.851568E-03
   2.301531E-01    1.641615E-01    1.862800E-02
   3.136459E-01    1.641615E-01    4.243322E-02
   4.165693E-01    1.641615E-01    3.515192E-02
   5.394704E-01    1.641615E-01    9.706266E-02
   6.807950E-01    1.641615E-01    2.551746E-01
   8.364541E-01    1.641615E-01    3.076086E-01
   9.999997E-01    1.641615E-01    2.804799E-01
   1.163546E+00    1.641615E-01    2.081633E-01
   1.319205E+00    1.641615E-01    1.201864E-01
   1.460529E+00    1.641615E-01    3.853047E-02
   1.583430E+00    1.641615E-01    4.239104E-02
   1.686354E+00    1.641615E-01    1.277048E-01
   1.769847E+00    1.641615E-01    9.027282E-02
   1.835838E+00    1.641615E-01    1.017964E+00
   1.886929E+00    1.641615E-01    1.058455E+00
   1.925850E+00    1.641615E-01    1.621259E-01
   1.955138E+00    1.641615E-01    5.552601E-03
   1.976973E+00    1.641615E-01    2.125903E-01
   1.993137E+00    1.641615E-01    1.433286E-01
   2.000000E+00    1.641615E-01    0.000000E+00
   0.000000E+00    2.301531E-01    0.000000E+00
   6.863085E-03    2.301531E-01    1.202011E-03
   2.302756E-02    2.301531E-01    3.785126E-03
   4.486176E-02    2.301531E-01    5.900360E-03
   7.414954E-02    2.301531E-01    7.784236E-03
   1.130712E-01    2.301531E-01    7.040284E-03
   1.641615E-01    2.301531E-01    1.009645E-03
   2.301531E-01    2.301531E-01    2.159597E-02
   3.136459E-01    2.301531E-01    4.756740E-02
   4.165693E-01    2.301531E-01    9.322084E-03
   5.394704E-01    2.301531E-01    1.798357E-01
   6.807950E-01    2.301531E-01    3.353314E-01
   8.364541E-01    2.301531E-01    3.779009E-01
   9.999997E-01    2.301531E-01    3.437782E-01
   1.163546E+00    2.301531E-01    2.661761E-01
   1.319205E+00    2.301531E-01    1.656821E-01
   1.460529E+00    2.301531E-01    5.873206E-02
   1.583430E+00    2.301531E-01    5.236118E-02
   1.686354E+00    2.301531E-01    1.429980E-01
   1.769847E+00    2.301531E-01    2.473512E-01
   1.835838E+00    2.301531E-01    1.145454E+00
   1.886929E+00    2.301531E-01    9.066551E-01
   1.925850E+00    2.301531E-01    1.530355E-01
   1.955138E+00    2.301531E-01    8.265341E-02
   1.976973E+00    2.301531E-01    2.381740E-01
   1.993137E+00    2.301531E-01    1.172211E-01
   2.000000E+00    2.301531E-01    0.000000E+00
   0.000000E+00    3.136459E-01    0.000000E+00
   6.863085E-03    3.136459E-01    1.208994E-03
   2.302756E-02    3.136459E-01    3.760295E-03
   4.486176E-02    3.136459E-01    5.812389E-03
   7.414954E-02    3.136459E-01    7.457581E-03
   1.130712E-01    3.136459E-01    5.698079E-03
   1.641615E-01    3.136459E-01    4.876750E-03
   2.301531E-01    3.136459E-01    2.710217E-02
   3.136459E-01    3.136459E-01    4.280547E-02
   4.165693E-01    3.136459E-01    5.168578E-02
   5.394704E-01    3.136459E-01    2.528484E-01
   6.807950E-01    3.136459E-01    3.812466E-01
   8.364541E-01    3.136459E-01    4.042414E-01
   9.999997E-01    3.136459E-01    3.584436E-01
   1.163546E+00    3.136459E-01    2.739167E-01
   1.319205E+00    3.136459E-01    1.681724E-01
   1.460529E+00    3.136459E-01    5.197043E-02
   1.583430E+00    3.136459E-01    6.730757E-02
   1.686354E+00    3.136459E-01    1.250022E-01
   1.769847E+00    3.136459E-01    4.310270E-01
   1.835838E+00    3.136459E-01    1.188544E+00
   1.886929E+00    3.136459E-01    7.674138E-01
   1.925850E+00    3.136459E-01    1.021694E-01
   1.955138E+00    3.136459E-01    1.538147E-01
   1.976973E+00    3.136459E-01    2.309730E-01
   1.993137E+00    3.136459E-01    9.502716E-02
   2.000000E+00    3.136459E-01    0.000000E+00
   0.000000E+00    4.165693E-01    0.000000E+00
   6.863085E-03    4.165693E-01    8.037332E-04
   2.302756E-02    4.165693E-01    2.372930E-03
   4.486176E-02    4.165693E-01    3.468917E-03
   7.414954E-02    4.165693E-01    3.605174E-03
   1.130712E-01    4.165693E-01    6.347257E-04
   1.641615E-01    4.165693E-01    1.560922E-02
   2.301531E-01    4.165693E-01    4.225406E-02
   3.136459E-01    4.165693E-01    4.080997E-02
   4.165693E-01    4.165693E-01    9.544569E-02
   5.394704E-01    4.165693E-01    2.633596E-01
   6.807950E-01    4.165693E-01    3.485205E-01
   8.364541E-01    4.165693E-01    3.499253E-01
   9.999997E-01    4.165693E-01    2.962259E-01
   1.163546E+00    4.165693E-01    2.084243E-01
   1.319205E+00    4.165693E-01    1.016421E-01
   1.460529E+00    4.165693E-01    6.727299E-03
   1.583430E+00    4.165693E-01    9.984060E-02
   1.686354E+00    4.165693E-01    8.065283E-02
   1.769847E+00    4.165693E-01    5.936220E-01
   1.835838E+00    4.165693E-01    1.148032E+00
   1.886929E+00    4.165693E-01    6.160894E-01
   1.925850E+00    4.165693E-01    1.407895E-02
   1.955138E+00    4.165693E-01    2.050795E-01
   1.976973E+00    4.165693E-01    2.111443E-01
   1.993137E+00    4.165693E-01    7.821698E-02
   2.000000E+00    4.165693E-01    0.000000E+00
   0.000000E+00    5.394704E-01    0.000000E+00
   6.863085E-03    5.394704E-01    4.727934E-04
   2.302756E-02    5.394704E-01    1.378701E-03
   4.486176E-02    5.394704E-01    1.871081E-03
   7.414954E-02    5.394704E-01    4.851224E-03
   1.130712E-01    5.394704E-01    1.744346E-02
   1.641615E-01    5.394704E-01    4.899521E-02
   2.301531E-01    5.394704E-01    8.259031E-02
   3.136459E-01    5.394704E-01    4.175096E-02
   4.165693E-01    5.394704E-01    1.061542E-01
   5.394704E-01    5.394704E-01    2.153985E-01
   6.807950E-01    5.394704E-01    2.385957E-01
   8.364541E-01    5.394704E-01    2.091950E-01
   9.999997E-01    5.394704E-01    1.572927E-01
   1.163546E+00    5.394704E-01    7.845936E-02
   1.319205E+00    5.394704E-01    2.150337E-02
   1.460529E+00    5.394704E-01    1.133315E-01
   1.583430E+00    5.394704E-01    1.610987E-01
   1.686354E+00    5.394704E-01    1.845970E-02
   1.769847E+00    5.394704E-01    6.902958E-01
   1.835838E+00    5.394704E-01    1.020849E+00
   1.886929E+00    5.394704E-01    4.236852E-01
   1.925850E+00    5.394704E-01    9.969077E-02
   1.955138E+00    5.394704E-01    2.380093E-01
   1.976973E+00    5.394704E-01    1.909054E-01
   1.993137E+00    5.394704E-01    6.584497E-02
   2.000000E+00    5.394704E-01    0.000000E+00
   0.000000E+00    6.807950E-01    0.000000E+00
   6.863085E-03    6.807950E-01    3.764671E-03
   2.302756E-02    6.807950E-01    1.170054E-02
   4.486176E-02    6.807950E-01    1.904459E-02
   7.414954E-02    6.807950E-01    3.564078E-02
   1.130712E-01    6.807950E-01    7.133236E-02
   1.641615E-01    6.807950E-01    1.193831E-01
   2.301531E-01    6.807950E-01    1.312714E-01
   3.136459E-01    6.807950E-01    5.534100E-02
   4.165693E-01    6.807950E-01    6.028223E-02
   5.394704E-01    6.807950E-01    1.069381E-01
   6.807950E-01    6.807950E-01    8.181457E-02
   8.364541E-01    6.807950E-01    3.637132E-02
   9.999997E-01    6.807950E-01    3.931134E-03
   1.163546E+00    6.807950E-01    4.401111E-02
   1.319205E+00    6.807950E-01    1.182444E-01
   1.460529E+00    6.807950E-01    1.808701E-01
   1.583430E+00    6.807950E-01    1.846525E-01
   1.686354E+00    6.807950E-01    6.697137E-02
   1.769847E+00    6.807950E-01    7.099665E-01
   1.835838E+00    6.807950E-01    7.927109E-01
   1.886929E+00    6.807950E-01    1.794420E-01
   1.925850E+00    6.807950E-01    2.202754E-01
   1.955138E+00    6.807950E-01    2.569842E-01
   1.976973E+00    6.807950E-01    1.718646E-01
   1.993137E+00    6.807950E-01    5.539048E-02
   2.000000E+00    6.807950E-01    0.000000E+00
   0.000000E+00    8.364541E-01    0.000000E+00
   6.863085E-03    8.364541E-01    9.969088E-03
   2.302756E-02    8.364541E-01    3.215221E-02
   4.486176E-02    8.364541E-01    5.478337E-02
   7.414954E-02    8.364541E-01    9.403178E-02
   1.130712E-01    8.364541E-01    1.488138E-01
   1.641615E-01    8.364541E-01    1.887530E-01
   2.301531E-01    8.364541E-01    1.648329E-01
   3.136459E-01    8.364541E-01    7.868147E-02
   4.165693E-01    8.364541E-01    1.036643E-04
   5.394704E-01    8.364541E-01    8.936381E-03
   6.807950E-01    8.364541E-01    3.571227E-02
   8.364541E-01    8.364541E-01    7.477634E-02
   9.999997E-01    8.364541E-01    8.295455E-02
   1.163546E+00    8.364541E-01    9.633992E-02
   1.319205E+00    8.364541E-01    1.466976E-01
   1.460529E+00    8.364541E-01    1.879341E-01
   1.583430E+00    8.364541E-01    1.567361E-01
   1.686354E+00    8.364541E-01    1.518167E-01
   1.769847E+00    8.364541E-01    6.240056E-01
   1.835838E+00    8.364541E-01    4.639508E-01
   1.886929E+00    8.364541E-01    9.026626E-02
   1.925850E+00    8.364541E-01    3.185020E-01
   1.955138E+00    8.364541E-01    2.566148E-01
   1.976973E+00    8.364541E-01    1.477120E-01
   1.993137E+00    8.364541E-01    4.376891E-02
   2.000000E+00    8.364541E-01    0.000000E+00
   0.000000E+00    9.999997E-01    0.000000E+00
   6.863085E-03    9.999997E-01    1.854280E-02
   2.302756E-02    9.999997E-01    5.981997E-02
   4.486176E-02    9.999997E-01    9.949506E-02
   7.414954E-02    9.999997E-01    1.555793E-01
   1.130712E-01    9.999997E-01    2.100229E-01
   1.641615E-01    9.999997E-01    2.189398E-01
   2.301531E-01    9.999997E-01    1.604672E-01
   3.136459E-01    9.999997E-01    7.697007E-02
   4.165693E-01    9.999997E-01    2.482190E-02
   5.394704E-01    9.999997E-01    2.925388E-02
   6.807950E-01    9.999997E-01    7.876600E-02
   8.364541E-01    9.999997E-01    1.097932E-01
   9.999997E-01    9.999997E-01    1.021012E-01
   1.163546E+00    9.999997E-01    9.365329E-02
   1.319205E+00    9.999997E-01    1.198583E-01
   1.460529E+00    9.999997E-01    1.498325E-01
   1.583430E+00    9.999997E-01    1.009534E-01
   1.686354E+00    9.999997E-01    1.868122E-01
   1.769847E+00    9.999997E-01    3.962341E-01
   1.835838E+00    9.999997E-01    8.812340E-02
   1.886929E+00    9.999997E-01    3.109008E-01
   1.925850E+00    9.999997E-01    3.518903E-01
   1.955138E+00    9.999997E-01    2.213938E-01
   1.976973E+00    9.999997E-01    1.105940E-01
   1.993137E+00    9.999997E-01    2.926397E-02
   2.000000E+00    9.999997E-01    0.000000E+00
   0.000000E+00    1.163546E+00    0.000000E+00
   6.863085E-03    1.163546E+00    2.763660E-02
   2.302756E-02    1.163546E+00    8.727641E-02
   4.486176E-02    1.163546E+00    1.380019E-01
   7.414954E-02    1.163546E+00    1.955322E-01
   1.130712E-01    1.163546E+00    2.275345E-01
   1.641615E-01    1.163546E+00    2.006623E-01
   2.301531E-01    1.163546E+00    1.342863E-01
   3.136459E-01    1.163546E+00    7.769604E-02
   4.165693E-01    1.163546E+00    5.028909E-02
   5.394704E-01    1.163546E+00    6.004046E-02
   6.807950E-01    1.163546E+00    1.021499E-01
   8.364541E-01    1.163546E+00    1.235652E-01
   9.999997E-01    1.163546E+00    9.818802E-02
   1.163546E+00    1.163546E+00    6.716662E-02
   1.319205E+00    1.163546E+00    7.688812E-02
   1.460529E+00    1.163546E+00    1.222554E-01
   1.583430E+00    1.163546E+00    7.862351E-02
   1.686354E+00    1.163546E+00    1.094331E-01
   1.769847E+00    1.163546E+00    1.163439E-01
   1.835838E+00    1.163546E+00    1.875491E-01
   1.886929E+00    1.163546E+00    3.881097E-01
   1.925850E+00    1.163546E+00    2.880931E-01
   1.955138E+00    1.163546E+00    1.454302E-01
   1.976973E+00    1.163546E+00    6.165267E-02
   1.993137E+00    1.163546E+00    1.363230E-02
   2.000000E+00    1.163546E+00    0.000000E+00
   0.000000E+00    1.319205E+00    0.000000E+00
   6.863085E-03    1.319205E+00    3.490310E-02
   2.302756E-02    1.319205E+00    1.075239E-01
   4.486176E-02    1.319205E+00    1.612376E-01
   7.414954E-02    1.319205E+00    2.087918E-01
   1.130712E-01    1.319205E+00    2.177806E-01
   1.641615E-01    1.319205E+00    1.853028E-01
   2.301531E-01    1.319205E+00    1.567272E-01
   3.136459E-01    1.319205E+00    1.554117E-01
   4.165693E-01    1.319205E+00    1.652129E-01
   5.394704E-01    1.319205E+00    1.755962E-01
   6.807950E-01    1.319205E+00    1.816867E-01
   8.364541E-01    1.319205E+00    1.669532E-01
   9.999997E-01    1.319205E+00    1.241549E-01
   1.163546E+00    1.319205E+00    9.836323E-02
   1.319205E+00    1.319205E+00    1.228664E-01
   1.460529E+00    1.319205E+00    1.495328E-01
   1.583430E+00    1.319205E+00    4.599309E-02
   1.686354E+00    1.319205E+00    7.595989E-02
   1.769847E+00    1.319205E+00    2.871010E-02
   1.835838E+00    1.319205E+00    2.884353E-01
   1.886929E+00    1.319205E+00    3.150256E-01
   1.925850E+00    1.319205E+00    1.579252E-01
   1.955138E+00    1.319205E+00    5.609937E-02
   1.976973E+00    1.319205E+00    1.605458E-02
   1.993137E+00    1.319205E+00    1.438055E-03
   2.000000E+00    1.319205E+00    0.000000E+00
   0.000000E+00    1.460529E+00    0.000000E+00
   6.863085E-03    1.460529E+00    3.725741E-02
   2.302756E-02    1.460529E+00    1.138044E-01
   4.486176E-02    1.460529E+00    1.665922E-01
   7.414954E-02    1.460529E+00    2.067672E-01
   1.130712E-01    1.460529E+00    2.153471E-01
   1.641615E-01    1.460529E+00    2.188166E-01
   2.301531E-01    1.460529E+00    2.601835E-01
   3.136459E-01    1.460529E+00    3.263092E-01
   4.165693E-01    1.460529E+00    3.781233E-01
   5.394704E-01    1.460529E+00    4.091548E-01
   6.807950E-01    1.460529E+00    4.011988E-01
   8.364541E-01    1.460529E+00    3.558601E-01
   9.999997E-01    1.460529E+00    2.923045E-01
   1.163546E+00    1.460529E+00    2.325128E-01
   1.319205E+00    1.460529E+00    1.567135E-01
   1.460529E+00    1.460529E+00    1.343492E-02
   1.583430E+00    1.460529E+00    1.390966E-01
   1.686354E+00    1.460529E+00    1.277151E-01
   1.769847E+00    1.460529E+00    8.177174E-02
   1.835838E+00    1.460529E+00    2.795117E-01
   1.886929E+00    1.460529E+00    1.672228E-01
   1.925850E+00    1.460529E+00    3.174487E-02
   1.955138E+00    1.460529E+00    6.664356E-03
   1.976973E+00    1.460529E+00    9.192937E-03
   1.993137E+00    1.460529E+00    4.352344E-03
   2.000000E+00    1.460529E+00    0.000000E+00
   0.000000E+00    1.583430E+00    0.000000E+00
   6.863085E-03    1.583430E+00    3.013449E-02
   2.302756E-02    1.583430E+00    9.679835E-02
   4.486176E-02    1.583430E+00    1.518694E-01
   7.414954E-02    1.583430E+00    2.018621E-01
   1.130712E-01    1.583430E+00    2.385251E-01
   1.641615E-01    1.583430E+00    3.031194E-01
   2.301531E-01    1.583430E+00    4.033611E-01
   3.136459E-01    1.583430E+00    4.967100E-01
   4.165693E-01    1.583430E+00    5.598333E-01
   5.394704E-01    1.583430E+00    5.724956E-01
   6.807950E-01    1.583430E+00    5.363996E-01
   8.364541E-01    1.583430E+00    4.569992E-01
   9.999997E-01    1.583430E+00    3.379871E-01
   1.163546E+00    1.583430E+00    1.696484E-01
   1.319205E+00    1.583430E+00    5.255121E-02
   1.460529E+00    1.583430E+00    2.734758E-01
   1.583430E+00    1.583430E+00    3.304925E-01
   1.686354E+00    1.583430E+00    1.436854E-01
   1.769847E+00    1.583430E+00    1.534226E-01
   1.835838E+00    1.583430E+00    2.490978E-01
   1.886929E+00    1.583430E+00    4.798113E-02
   1.925850E+00    1.583430E+00    1.538217E-02
   1.955138E+00    1.583430E+00    1.868748E-02
   1.976973E+00    1.583430E+00    1.364524E-02
   1.993137E+00    1.583430E+00    5.368492E-03
   2.000000E+00    1.583430E+00    0.000000E+00
   0.000000E+00    1.686354E+00    0.000000E+00
   6.863085E-03    1.686354E+00    8.975798E-03
   2.302756E-02    1.686354E+00    4.266481E-02
   4.486176E-02    1.686354E+00    9.627305E-02
   7.414954E-02    1.686354E+00    1.619266E-01
   1.130712E-01    1.686354E+00    2.357869E-01
   1.641615E-01    1.686354E+00    3.311373E-01
   2.301531E-01    1.686354E+00    4.407403E-01
   3.136459E-01    1.686354E+00    5.259255E-01
   4.165693E-01    1.686354E+00    5.607032E-01
   5.394704E-01    1.686354E+00    5.301060E-01
   6.807950E-01    1.686354E+00    4.431859E-01
   8.364541E-01    1.686354E+00    3.211788E-01
   9.999997E-01    1.686354E+00    1.629758E-01
   1.163546E+00    1.686354E+00    5.110791E-02
   1.319205E+00    1.686354E+00    3.004927E-01
   1.460529E+00    1.686354E+00    4.783750E-01
   1.583430E+00    1.686354E+00    4.138035E-01
   1.686354E+00    1.686354E+00    7.961976E-02
   1.769847E+00    1.686354E+00    2.737588E-01
   1.835838E+00    1.686354E+00    2.161851E-01
   1.886929E+00    1.686354E+00    3.608307E-02
   1.925850E+00    1.686354E+00    1.615693E-03
   1.955138E+00    1.686354E+00    1.147471E-02
   1.976973E+00    1.686354E+00    1.229778E-02
   1.993137E+00    1.686354E+00    5.531365E-03
   2.000000E+00    1.686354E+00    0.000000E+00
   0.000000E+00    1.769847E+00    0.000000E+00
   6.863085E-03    1.769847E+00    2.516983E-02
   2.302756E-02    1.769847E+00    3.396561E-02
   4.486176E-02    1.769847E+00    3.827170E-02
   7.414954E-02    1.769847E+00    1.429953E-01
   1.130712E-01    1.769847E+00    2.578030E-01
   1.641615E-01    1.769847E+00    3.767472E-01
   2.301531E-01    1.769847E+00    4.790083E-01
   3.136459E-01    1.769847E+00    5.264232E-01
   4.165693E-01    1.769847E+00    4.969802E-01
   5.394704E-01    1.769847E+00    4.001653E-01
   6.807950E-01    1.769847E+00    2.719374E-01
   8.364541E-01    1.769847E+00    1.353858E-01
   9.999997E-01    1.769847E+00    1.665937E-02
   1.163546E+00    1.769847E+00    2.048037E-01
   1.319205E+00    1.769847E+00    4.156694E-01
   1.460529E+00    1.769847E+00    5.333460E-01
   1.583430E+00    1.769847E+00    3.990907E-01
   1.686354E+00    1.769847E+00    1.381597E-02
   1.769847E+00    1.769847E+00    3.323131E-01
   1.835838E+00    1.769847E+00    1.102095E-01
   1.886929E+00    1.769847E+00    9.133371E-03
   1.925850E+00    1.769847E+00    2.627335E-02
   1.955138E+00    1.769847E+00    2.291695E-02
   1.976973E+00    1.769847E+00    1.647778E-02
   1.993137E+00    1.769847E+00    6.390098E-03
   2.000000E+00    1.769847E+00    0.000000E+00
   0.000000E+00    1.835838E+00    0.000000E+00
   6.863085E-03    1.835838E+00    7.628396E-02
   2.302756E-02    1.835838E+00    1.383259E-01
   4.486176E-02    1.835838E+00    2.357572E-02
   7.414954E-02    1.835838E+00    1.363520E-01
   1.130712E-01    1.835838E+00    2.908832E-01
   1.641615E-01    1.835838E+00    4.463272E-01
   2.301531E-01    1.835838E+00    5.356130E-01
   3.136459E-01    1.835838E+00    5.073960E-01
   4.165693E-01    1.835838E+00    3.903684E-01
   5.394704E-01    1.835838E+00    2.447769E-01
   6.807950E-01    1.835838E+00    1.148599E-01
   8.364541E-01    1.835838E+00    3.615094E-03
   9.999997E-01    1.835838E+00    1.116600E-01
   1.163546E+00    1.835838E+00    2.527589E-01
   1.319205E+00    1.835838E+00    4.049822E-01
   1.460529E+00    1.835838E+00    4.811752E-01
   1.583430E+00    1.835838E+00    3.299685E-01
   1.686354E+00    1.835838E+00    8.956771E-02
   1.769847E+00    1.835838E+00    2.488190E-01
   1.835838E+00    1.835838E+00    9.455507E-03
   1.886929E+00    1.835838E+00    5.102932E-02
   1.925850E+00    1.835838E+00    4.338216E-02
   1.955138E+00    1.835838E+00    2.804405E-02
   1.976973E+00    1.835838E+00    1.646875E-02
   1.993137E+00    1.835838E+00    5.669797E-03
   2.000000E+00    1.835838E+00    0.000000E+00
   0.000000E+00    1.886929E+00    0.000000E+00
   6.863085E-03    1.886929E+00    1.388050E-01
   2.302756E-02    1.886929E+00    2.474319E-01
   4.486176E-02    1.886929E+00    6.148481E-02
   7.414954E-02    1.886929E+00    1.575183E-01
   1.130712E-01    1.886929E+00    3.678070E-01
   1.641615E-01    1.886929E+00    5.947967E-01
   2.301531E-01    1.886929E+00    6.261032E-01
   3.136459E-01    1.886929E+00    4.665399E-01
   4.165693E-01    1.886929E+00    2.558386E-01
   5.394704E-01    1.886929E+00    8.874756E-02
   6.807950E-01    1.886929E+00    1.583789E-02
   8.364541E-01    1.886929E+00    8.238989E-02
   9.999997E-01    1.886929E+00    1.459409E-01
   1.163546E+00    1.886929E+00    2.324463E-01
   1.319205E+00    1.886929E+00    3.338827E-01
   1.460529E+00    1.886929E+00    3.832138E-01
   1.583430E+00    1.886929E+00    2.432919E-01
   1.686354E+00    1.886929E+00    1.345399E-01
   1.769847E+00    1.886929E+00    1.573113E-01
   1.835838E+00    1.886929E+00    5.373736E-03
   1.886929E+00    1.886929E+00    3.421080E-02
   1.925850E+00    1.886929E+00    2.566867E-02
   1.955138E+00    1.886929E+00    1.635982E-02
   1.976973E+00    1.886929E+00    9.902288E-03
   1.993137E+00    1.886929E+00    3.434345E-03
   2.000000E+00    1.886929E+00    0.000000E+00
   0.000000E+00    1.925850E+00    0.000000E+00
   6.863085E-03    1.925850E+00    2.092752E-01
   2.302756E-02    1.925850E+00    3.462172E-01
   4.486176E-02    1.925850E+00    7.317516E-02
   7.414954E-02    1.925850E+00    1.753333E-01
   1.130712E-01    1.925850E+00    4.432565E-01
   1.641615E-01    1.925850E+00    8.561629E-01
   2.301531E-01    1.925850E+00    7.323877E-01
   3.136459E-01    1.925850E+00    3.955465E-01
   4.165693E-01    1.925850E+00    1.305288E-01
   5.394704E-01    1.925850E+00    1.989497E-02
   6.807950E-01    1.925850E+00    9.372990E-02
   8.364541E-01    1.925850E+00    1.293543E-01
   9.999997E-01    1.925850E+00    1.549679E-01
   1.163546E+00    1.925850E+00    1.916350E-01
   1.319205E+00    1.925850E+00    2.414453E-01
   1.460529E+00    1.925850E+00    2.644901E-01
   1.583430E+00    1.925850E+00    1.364420E-01
   1.686354E+00    1.925850E+00    1.375285E-01
   1.769847E+00    1.925850E+00    1.081375E-01
   1.835838E+00    1.925850E+00    9.821319E-03
   1.886929E+00    1.925850E+00    7.223373E-03
   1.925850E+00    1.925850E+00    6.100026E-03
   1.955138E+00    1.925850E+00    4.953871E-03
   1.976973E+00    1.925850E+00    3.905128E-03
   1.993137E+00    1.925850E+00    1.477921E-03
   2.000000E+00    1.925850E+00    0.000000E+00
   0.000000E+00    1.955138E+00    0.000000E+00