TITLE = "2d Diffusion Data"
VARIABLES = "X", "Y", "T", "QX", "QY", "QMAG"
ZONE T="Zone 1", I=82, J=42, DATAPACKING=POINT, ZONETYPE=ORDERED
   6.250000E-03    6.250000E-03    1.500000E+01   -5.000000E+03    0.000000E+00    5.000000E+03
   1.875000E-02    6.250000E-03    1.500000E+01    0.000000E+00    0.000000E+00    0.000000E+00
   3.125000E-02    6.250000E-03    1.500000E+01    0.000000E+00    0.000000E+00    0.000000E+00
   4.375000E-02    6.250000E-03    1.500000E+01    0.000000E+00    0.000000E+00    0.000000E+00
   5.625000E-02    6.250000E-03    1.500000E+01    0.000000E+00    0.000000E+00    0.000000E+00
   6.875000E-02    6.250000E-03    1.500000E+01    0.000000E+00    0.000000E+00    0.000000E+00
   8.125000E-02    6.250000E-03    1.500000E+01    0.000000E+00    0.000000E+00    0.000000E+00
   9.375000E-02    6.250000E-03    1.500000E+01    0.000000E+00    0.000000E+00    0.000000E+00
   1.062500E-01    6.250000E-03    1.500000E+01    0.000000E+00    0.000000E+00    0.000000E+00
   1.187500E-01    6.250000E-03    1.500000E+01    0.000000E+00    0.000000E+00    0.000000E+00
   1.312500E-01    6.250000E-03    1.500000E+01    0.000000E+00    0.000000E+00    0.000000E+00
   1.437500E-01    6.250000E-03    1.500000E+01    0.000000E+00    0.000000E+00    0.000000E+00
   1.562500E-01    6.250000E-03    1.500000E+01    0.000000E+00    0.000000E+00    0.000000E+00
   1.687500E-01    6.250000E-03    1.500000E+01    0.000000E+00    0.000000E+00    0.000000E+00
   1.812500E-01    6.250000E-03    1.500000E+01    0.000000E+00    0.000000E+00    0.000000E+00
   1.937500E-01    6.250000E-03    1.500000E+01    0.000000E+00    0.000000E+00    0.000000E+00
   2.062500E-01    6.250000E-03    1.500000E+01    0.000000E+00    0.000000E+00    0.000000E+00
   2.187500E-01    6.250000E-03    1.500000E+01    0.000000E+00    0.000000E+00    0.000000E+00
   2.312500E-01    6.250000E-03    1.500000E+01    0.000000E+00    0.000000E+00    0.000000E+00
   2.437500E-01    6.250000E-03    1.500000E+01    0.000000E+00    0.000000E+00    0.000000E+00
   2.562500E-01    6.250000E-03    1.500000E+01    0.000000E+00    0.000000E+00    0.000000E+00
   2.687500E-01    6.250000E-03    1.500000E+01    0.000000E+00    0.000000E+00    0.000000E+00
   2.812500E-01    6.250000E-03    1.500000E+01    0.000000E+00    0.000000E+00    0.000000E+00
   2.937500E-01    6.250000E-03    1.500000E+01    0.000000E+00    0.000000E+00    0.000000E+00
   3.062500E-01    6.250000E-03    1.500000E+01    0.000000E+00    0.000000E+00    0.000000E+00
   3.187500E-01    6.250000E-03    1.500000E+01    0.000000E+00    0.000000E+00    0.000000E+00
   3.312500E-01    6.250000E-03    1.500000E+01    0.000000E+00    0.000000E+00    0.000000E+00
   3.437500E-01    6.250000E-03    1.500000E+01    0.000000E+00    0.000000E+00    0.000000E+00
   3.562500E-01    6.250000E-03    1.500000E+01    0.000000E+00    0.000000E+00    0.000000E+00
   3.687500E-01    6.250000E-03    1.500000E+01    0.000000E+00    0.000000E+00    0.000000E+00
   3.812500E-01    6.250000E-03    1.500000E+01    0.000000E+00    0.000000E+00    0.000000E+00
   3.937500E-01    6.250000E-03    1.500000E+01    0.000000E+00    0.000000E+00    0.000000E+00
   4.062500E-01    6.250000E-03    1.500000E+01    0.000000E+00    0.000000E+00    0.000000E+00
   4.187500E-01    6.250000E-03    1.500000E+01    0.000000E+00    0.000000E+00    0.000000E+00
   4.312500E-01    6.250000E-03    1.500000E+01    0.000000E+00    0.000000E+00    0.000000E+00
   4.437500E-01    6.250000E-03    1.500000E+01    0.000000E+00    0.000000E+00    0.000000E+00
   4.562500E-01    6.250000E-03    1.500000E+01    0.000000E+00    0.000000E+00    0.000000E+00
   4.687500E-01    6.250000E-03    1.500000E+01    0.000000E+00    0.000000E+00    0.000000E+00
   4.812500E-01    6.250000E-03    1.500000E+01    0.000000E+00    0.000000E+00    0.000000E+00
   4.937500E-01    6.250000E-03    1.500000E+01    0.000000E+00    0.000000E+00    0.000000E+00
   5.062500E-01    6.250000E-03    1.500000E+01    0.000000E+00    0.000000E+00    0.000000E+00
   5.187500E-01    6.250000E-03    1.500000E+01    0.000000E+00    0.000000E+00    0.000000E+00
   5.312500E-01    6.250000E-03    1.500000E+01    0.000000E+00    0.000000E+00    0.000000E+00
   5.437500E-01    6.250000E-03    1.500000E+01    0.000000E+00    0.000000E+00    0.000000E+00
   5.562500E-01    6.250000E-03    1.500000E+01    0.000000E+00    0.000000E+00    0.000000E+00
   5.687500E-01    6.250000E-03    1.500000E+01    0.000000E+00    0.000000E+00    0.000000E+00
   5.812500E-01    6.250000E-03    1.500000E+01    0.000000E+00    0.000000E+00    0.000000E+00
   5.937500E-01    6.250000E-03    1.500000E+01    0.000000E+00    0.000000E+00    0.000000E+00
   6.062500E-01    6.250000E-03    1.500000E+01    0.000000E+00    0.000000E+00    0.000000E+00
   6.187500E-01    6.250000E-03    1.500000E+01    0.000000E+00    0.000000E+00    0.000000E+00
   6.312500E-01    6.250000E-03    1.500000E+01    0.000000E+00    0.000000E+00    0.000000E+00
   6.437500E-01    6.250000E-03    1.500000E+01    0.000000E+00    0.000000E+00    0.000000E+00
   6.562500E-01    6.250000E-03    1.500000E+01    0.000000E+00    0.000000E+00    0.000000E+00
   6.687500E-01    6.250000E-03    1.500000E+01    0.000000E+00    0.000000E+00    0.000000E+00
   6.812500E-01    6.250000E-03    1.500000E+01    0.000000E+00    0.000000E+00    0.000000E+00
   6.937500E-01    6.250000E-03    1.500000E+01    0.000000E+00    0.000000E+00    0.000000E+00
   7.062500E-01    6.250000E-03    1.500000E+01    0.000000E+00    0.000000E+00    0.000000E+00
   7.187500E-01    6.250000E-03    1.500000E+01    0.000000E+00    0.000000E+00    0.000000E+00
   7.312500E-01    6.250000E-03    1.500000E+01    0.000000E+00    0.000000E+00    0.000000E+00
   7.437500E-01    6.250000E-03    1.500000E+01    0.000000E+00    0.000000E+00    0.000000E+00
   7.562500E-01    6.250000E-03    1.500000E+01    0.000000E+00    0.000000E+00    0.000000E+00
   7.687500E-01    6.250000E-03    1.500000E+01    0.000000E+00    0.000000E+00    0.000000E+00
   7.812500E-01    6.250000E-03    1.500000E+01    0.000000E+00    0.000000E+00    0.000000E+00
   7.937500E-01    6.250000E-03    1.500000E+01    0.000000E+00    0.000000E+00    0.000000E+00
   8.062500E-01    6.250000E-03    1.500000E+01    0.000000E+00    0.000000E+00    0.000000E+00
   8.187500E-01    6.250000E-03    1.500000E+01    0.000000E+00    0.000000E+00    0.000000E+00
   8.312500E-01    6.250000E-03    1.500000E+01    0.000000E+00    0.000000E+00    0.000000E+00
   8.437500E-01    6.250000E-03    1.500000E+01    0.000000E+00    0.000000E+00    0.000000E+00
   8.562500E-01    6.250000E-03    1.500000E+01    0.000000E+00    0.000000E+00    0.000000E+00
   8.687500E-01    6.250000E-03    1.500000E+01    0.000000E+00    0.000000E+00    0.000000E+00
   8.812500E-01    6.250000E-03    1.500000E+01    0.000000E+00    0.000000E+00    0.000000E+00
   8.937500E-01    6.250000E-03    1.500000E+01    0.000000E+00    0.000000E+00    0.000000E+00
   9.062500E-01    6.250000E-03    1.500000E+01    0.000000E+00    0.000000E+00    0.000000E+00
   9.187500E-01    6.250000E-03    1.500000E+01    0.000000E+00    0.000000E+00    0.000000E+00
   9.312500E-01    6.250000E-03    1.500000E+01    0.000000E+00    0.000000E+00    0.000000E+00
   9.437500E-01    6.250000E-03    1.500000E+01    0.000000E+00    0.000000E+00    0.000000E+00
   9.562500E-01    6.250000E-03    1.500000E+01    0.000000E+00    0.000000E+00    0.000000E+00
   9.687500E-01    6.250000E-03    1.500000E+01    0.000000E+00    0.000000E+00    0.000000E+00
   9.812500E-01    6.250000E-03    1.500000E+01    0.000000E+00    0.000000E+00    0.000000E+00
   9.937500E-01    6.250000E-03    1.500000E+01    0.000000E+00    0.000000E+00    0.000000E+00
   1.006250E+00    6.250000E-03    1.500000E+01    0.000000E+00    0.000000E+00    0.000000E+00
   1.018750E+00    6.250000E-03    5.526397E+00    0.000000E+00    0.000000E+00    0.000000E+00
   6.250000E-03    1.875000E-02    5.121231E+00   -5.000000E+03    0.000000E+00    5.000000E+03
   1.875000E-02    1.875000E-02    6.982576E+00   -1.972333E+03    9.967515E+03    1.016078E+04
   3.125000E-02    1.875000E-02    8.091613E+00   -1.237876E+03    8.773706E+03    8.860601E+03
   4.375000E-02    1.875000E-02    8.846847E+00   -8.742668E+02    7.887670E+03    7.935974E+03
   5.625000E-02    1.875000E-02    9.408280E+00   -6.661674E+02    7.199647E+03    7.230401E+03
   6.875000E-02    1.875000E-02    9.850111E+00   -5.332390E+02    6.645473E+03    6.666832E+03
   8.125000E-02    1.875000E-02    1.021135E+01   -4.412781E+02    6.186345E+03    6.202063E+03
   9.375000E-02    1.875000E-02    1.051469E+01   -3.738639E+02    5.797678E+03    5.809720E+03
   1.062500E-01    1.875000E-02    1.077440E+01   -3.222718E+02    5.463152E+03    5.472649E+03
   1.187500E-01    1.875000E-02    1.100004E+01   -2.814706E+02    5.171470E+03    5.179124E+03
   1.312500E-01    1.875000E-02    1.119830E+01   -2.483632E+02    4.914515E+03    4.920787E+03
   1.437500E-01    1.875000E-02    1.137408E+01   -2.209412E+02    4.686274E+03    4.691480E+03
   1.562500E-01    1.875000E-02    1.153104E+01   -1.978460E+02    4.482168E+03    4.486533E+03
   1.687500E-01    1.875000E-02    1.167204E+01   -1.781256E+02    4.298628E+03    4.302317E+03
   1.812500E-01    1.875000E-02    1.179930E+01   -1.610936E+02    4.132815E+03    4.135953E+03
   1.937500E-01    1.875000E-02    1.191465E+01   -1.462421E+02    3.982431E+03    3.985115E+03
   2.062500E-01    1.875000E-02    1.201955E+01   -1.331875E+02    3.845588E+03    3.847894E+03
   2.187500E-01    1.875000E-02    1.211523E+01   -1.216343E+02    3.720711E+03    3.722698E+03
   2.312500E-01    1.875000E-02    1.220273E+01   -1.113511E+02    3.606470E+03    3.608189E+03
   2.437500E-01    1.875000E-02    1.228293E+01   -1.021539E+02    3.501733E+03    3.503222E+03
   2.562500E-01    1.875000E-02    1.235658E+01   -9.389462E+01    3.405521E+03    3.406815E+03
   2.687500E-01    1.875000E-02    1.242434E+01   -8.645221E+01    3.316986E+03    3.318113E+03
   2.812500E-01    1.875000E-02    1.248678E+01   -7.972698E+01    3.235384E+03    3.236366E+03
   2.937500E-01    1.875000E-02    1.254441E+01   -7.363582E+01    3.160057E+03    3.160915E+03
   3.062500E-01    1.875000E-02    1.259768E+01   -6.810883E+01    3.090423E+03    3.091173E+03
   3.187500E-01    1.875000E-02    1.264698E+01   -6.308672E+01    3.025960E+03    3.026617E+03
   3.312500E-01    1.875000E-02    1.269269E+01   -5.851883E+01    2.966200E+03    2.966777E+03
   3.437500E-01    1.875000E-02    1.273511E+01   -5.436157E+01    2.910721E+03    2.911229E+03
   3.562500E-01    1.875000E-02    1.277456E+01   -5.057722E+01    2.859140E+03    2.859587E+03
   3.687500E-01    1.875000E-02    1.281128E+01   -4.713294E+01    2.811107E+03    2.811502E+03
   3.812500E-01    1.875000E-02    1.284554E+01   -4.400003E+01    2.766304E+03    2.766654E+03
   3.937500E-01    1.875000E-02    1.287755E+01   -4.115333E+01    2.724437E+03    2.724748E+03
   4.062500E-01    1.875000E-02    1.290752E+01   -3.857069E+01    2.685238E+03    2.685515E+03
   4.187500E-01    1.875000E-02    1.293564E+01   -3.623258E+01    2.648456E+03    2.648704E+03
   4.312500E-01    1.875000E-02    1.296208E+01   -3.412178E+01    2.613860E+03    2.614083E+03
   4.437500E-01    1.875000E-02    1.298702E+01   -3.222306E+01    2.581234E+03    2.581436E+03
   4.562500E-01    1.875000E-02    1.301061E+01   -3.052301E+01    2.550378E+03    2.550560E+03
   4.687500E-01    1.875000E-02    1.303299E+01   -2.900980E+01    2.521100E+03    2.521267E+03
   4.812500E-01    1.875000E-02    1.305430E+01   -2.767307E+01    2.493223E+03    2.493377E+03
   4.937500E-01    1.875000E-02    1.307467E+01   -2.650376E+01    2.466578E+03    2.466720E+03
   5.062500E-01    1.875000E-02    1.309422E+01   -2.549402E+01    2.441004E+03    2.441137E+03
   5.187500E-01    1.875000E-02    1.311306E+01   -2.463708E+01    2.416348E+03    2.416474E+03
   5.312500E-01    1.875000E-02    1.313132E+01   -2.392723E+01    2.392462E+03    2.392582E+03
   5.437500E-01    1.875000E-02    1.314910E+01   -2.335969E+01    2.369204E+03    2.369319E+03
   5.562500E-01    1.875000E-02    1.316650E+01   -2.293054E+01    2.346436E+03    2.346548E+03
   5.687500E-01    1.875000E-02    1.318363E+01   -2.263673E+01    2.324022E+03    2.324133E+03
   5.812500E-01    1.875000E-02    1.320059E+01   -2.247593E+01    2.301832E+03    2.301942E+03
   5.937500E-01    1.875000E-02    1.321748E+01   -2.244655E+01    2.279736E+03    2.279846E+03
   6.062500E-01    1.875000E-02    1.323440E+01   -2.254762E+01    2.257603E+03    2.257715E+03
   6.187500E-01    1.875000E-02    1.325144E+01   -2.277879E+01    2.235306E+03    2.235422E+03
   6.312500E-01    1.875000E-02    1.326870E+01   -2.314016E+01    2.212716E+03    2.212837E+03
   6.437500E-01    1.875000E-02    1.328629E+01   -2.363225E+01    2.189705E+03    2.189833E+03
   6.562500E-01    1.875000E-02    1.330429E+01   -2.425587E+01    2.166144E+03    2.166280E+03
   6.687500E-01    1.875000E-02    1.332282E+01   -2.501193E+01    2.141902E+03    2.142048E+03
   6.812500E-01    1.875000E-02    1.334196E+01   -2.590126E+01    2.116848E+03    2.117006E+03
   6.937500E-01    1.875000E-02    1.336183E+01   -2.692432E+01    2.090848E+03    2.091022E+03
   7.062500E-01    1.875000E-02    1.338251E+01   -2.808083E+01    2.063772E+03    2.063963E+03
   7.187500E-01    1.875000E-02    1.340412E+01   -2.936929E+01    2.035486E+03    2.035698E+03
   7.312500E-01    1.875000E-02    1.342674E+01   -3.078629E+01    2.005860E+03    2.006096E+03
   7.437500E-01    1.875000E-02    1.345048E+01   -3.232560E+01    1.974767E+03    1.975032E+03
   7.562500E-01    1.875000E-02    1.347543E+01   -3.397689E+01    1.942089E+03    1.942386E+03
   7.687500E-01    1.875000E-02    1.350165E+01   -3.572398E+01    1.907717E+03    1.908051E+03
   7.812500E-01    1.875000E-02    1.352923E+01   -3.754234E+01    1.871562E+03    1.871938E+03
   7.937500E-01    1.875000E-02    1.355819E+01   -3.939560E+01    1.833561E+03    1.833984E+03
   8.062500E-01    1.875000E-02    1.358856E+01   -4.123036E+01    1.793690E+03    1.794164E+03
   8.187500E-01    1.875000E-02    1.362029E+01   -4.296874E+01    1.751986E+03    1.752513E+03
   8.312500E-01    1.875000E-02    1.365327E+01   -4.449701E+01    1.708568E+03    1.709148E+03
   8.437500E-01    1.875000E-02    1.368730E+01   -4.564830E+01    1.663679E+03    1.664305E+03
   8.562500E-01    1.875000E-02    1.372202E+01   -4.617517E+01    1.617742E+03    1.618400E+03
   8.687500E-01    1.875000E-02    1.375684E+01   -4.570515E+01    1.571443E+03    1.572108E+03
   8.812500E-01    1.875000E-02    1.379085E+01   -4.366587E+01    1.525869E+03    1.526494E+03
   8.937500E-01    1.875000E-02    1.382260E+01   -3.915362E+01    1.482708E+03    1.483225E+03
   9.062500E-01    1.875000E-02    1.384982E+01   -3.069161E+01    1.444591E+03    1.444917E+03
   9.187500E-01    1.875000E-02    1.386882E+01   -1.575886E+01    1.415661E+03    1.415749E+03
   9.312500E-01    1.875000E-02    1.387355E+01    1.019115E+01    1.402563E+03    1.402600E+03
   9.437500E-01    1.875000E-02    1.385348E+01    5.594179E+01    1.416236E+03    1.417341E+03
   9.562500E-01    1.875000E-02    1.378930E+01    1.399624E+02    1.475300E+03    1.481924E+03
   9.687500E-01    1.875000E-02    1.364269E+01    3.052205E+02    1.612558E+03    1.641190E+03
   9.812500E-01    1.875000E-02    1.332963E+01    6.637408E+02    1.887512E+03    2.000813E+03
   9.937500E-01    1.875000E-02    1.264308E+01    1.544433E+03    2.408281E+03    2.860960E+03
   1.006250E+00    1.875000E-02    1.100368E+01    4.028832E+03    3.354989E+03    5.242847E+03
   1.018750E+00    1.875000E-02    6.575561E+00    0.000000E+00    0.000000E+00    0.000000E+00
   6.250000E-03    3.125000E-02   -2.551991E+00   -5.000000E+03    0.000000E+00    5.000000E+03
   1.875000E-02    3.125000E-02   -1.131791E-02   -2.950233E+03    8.842584E+03    9.321757E+03
   3.125000E-02    3.125000E-02    1.786587E+00   -2.129962E+03    8.104302E+03    8.379525E+03
   4.375000E-02    3.125000E-02    3.120979E+00   -1.611989E+03    7.436905E+03    7.609603E+03
   5.625000E-02    3.125000E-02    4.157159E+00   -1.272130E+03    6.863701E+03    6.980595E+03
   6.875000E-02    3.125000E-02    4.991758E+00   -1.037719E+03    6.375024E+03    6.458931E+03
   8.125000E-02    3.125000E-02    5.683216E+00   -8.682238E+02    5.956034E+03    6.018982E+03
   9.375000E-02    3.125000E-02    6.268558E+00   -7.406188E+02    5.593484E+03    5.642302E+03
   1.062500E-01    3.125000E-02    6.772361E+00   -6.412974E+02    5.276816E+03    5.315642E+03
   1.187500E-01    3.125000E-02    7.211642E+00   -5.618573E+02    4.997852E+03    5.029335E+03
   1.312500E-01    3.125000E-02    7.598622E+00   -4.968866E+02    4.750271E+03    4.776188E+03
   1.437500E-01    3.125000E-02    7.942358E+00   -4.427647E+02    4.529138E+03    4.550729E+03
   1.562500E-01    3.125000E-02    8.249746E+00   -3.969875E+02    4.330554E+03    4.348712E+03
   1.687500E-01    3.125000E-02    8.526163E+00   -3.577720E+02    4.151395E+03    4.166783E+03
   1.812500E-01    3.125000E-02    8.775882E+00   -3.238162E+02    3.989122E+03    4.002244E+03
   1.937500E-01    3.125000E-02    9.002363E+00   -2.941479E+02    3.841645E+03    3.852890E+03
   2.062500E-01    3.125000E-02    9.208452E+00   -2.680268E+02    3.707222E+03    3.716899E+03
   2.187500E-01    3.125000E-02    9.396520E+00   -2.448795E+02    3.584386E+03    3.592741E+03
   2.312500E-01    3.125000E-02    9.568569E+00   -2.242544E+02    3.471885E+03    3.479120E+03
   2.437500E-01    3.125000E-02    9.726306E+00   -2.057911E+02    3.368645E+03    3.374925E+03
   2.562500E-01    3.125000E-02    9.871203E+00   -1.891982E+02    3.273735E+03    3.279198E+03
   2.687500E-01    3.125000E-02    1.000454E+01   -1.742371E+02    3.186340E+03    3.191100E+03
   2.812500E-01    3.125000E-02    1.012743E+01   -1.607106E+02    3.105743E+03    3.109898E+03
   2.937500E-01    3.125000E-02    1.024088E+01   -1.484540E+02    3.031308E+03    3.034941E+03
   3.062500E-01    3.125000E-02    1.034575E+01   -1.373284E+02    2.962471E+03    2.965653E+03
   3.187500E-01    3.125000E-02    1.044283E+01   -1.272159E+02    2.898725E+03    2.901515E+03
   3.312500E-01    3.125000E-02    1.053283E+01   -1.180154E+02    2.839611E+03    2.842062E+03
   3.437500E-01    3.125000E-02    1.061638E+01   -1.096401E+02    2.784718E+03    2.786875E+03
   3.562500E-01    3.125000E-02    1.069407E+01   -1.020145E+02    2.733670E+03    2.735573E+03
   3.687500E-01    3.125000E-02    1.076640E+01   -9.507300E+01    2.686125E+03    2.687807E+03
   3.812500E-01    3.125000E-02    1.083388E+01   -8.875807E+01    2.641769E+03    2.643260E+03
   3.937500E-01    3.125000E-02    1.089693E+01   -8.301931E+01    2.600315E+03    2.601640E+03
   4.062500E-01    3.125000E-02    1.095597E+01   -7.781229E+01    2.561496E+03    2.562678E+03
   4.187500E-01    3.125000E-02    1.101136E+01   -7.309784E+01    2.525068E+03    2.526126E+03
   4.312500E-01    3.125000E-02    1.106346E+01   -6.884137E+01    2.490802E+03    2.491753E+03
   4.437500E-01    3.125000E-02    1.111260E+01   -6.501230E+01    2.458484E+03    2.459344E+03
   4.562500E-01    3.125000E-02    1.115907E+01   -6.158368E+01    2.427916E+03    2.428697E+03
   4.687500E-01    3.125000E-02    1.120316E+01   -5.853173E+01    2.398911E+03    2.399625E+03
   4.812500E-01    3.125000E-02    1.124515E+01   -5.583561E+01    2.371293E+03    2.371950E+03
   4.937500E-01    3.125000E-02    1.128527E+01   -5.347710E+01    2.344893E+03    2.345503E+03
   5.062500E-01    3.125000E-02    1.132379E+01   -5.144040E+01    2.319554E+03    2.320124E+03
   5.187500E-01    3.125000E-02    1.136092E+01   -4.971193E+01    2.295123E+03    2.295661E+03
   5.312500E-01    3.125000E-02    1.139689E+01   -4.828017E+01    2.271454E+03    2.271967E+03
   5.437500E-01    3.125000E-02    1.143192E+01   -4.713551E+01    2.248407E+03    2.248901E+03
   5.562500E-01    3.125000E-02    1.146621E+01   -4.627011E+01    2.225844E+03    2.226325E+03
   5.687500E-01    3.125000E-02    1.149997E+01   -4.567782E+01    2.203632E+03    2.204106E+03
   5.812500E-01    3.125000E-02    1.153338E+01   -4.535402E+01    2.181641E+03    2.182113E+03
   5.937500E-01    3.125000E-02    1.156666E+01   -4.529552E+01    2.159741E+03    2.160216E+03
   6.062500E-01    3.125000E-02    1.160000E+01   -4.550047E+01    2.137804E+03    2.138288E+03
   6.187500E-01    3.125000E-02    1.163358E+01   -4.596817E+01    2.115703E+03    2.116202E+03
   6.312500E-01    3.125000E-02    1.166760E+01   -4.669898E+01    2.093310E+03    2.093831E+03
   6.437500E-01    3.125000E-02    1.170225E+01   -4.769408E+01    2.070497E+03    2.071046E+03
   6.562500E-01    3.125000E-02    1.173773E+01   -4.895524E+01    2.047134E+03    2.047720E+03
   6.687500E-01    3.125000E-02    1.177424E+01   -5.048453E+01    2.023093E+03    2.023722E+03
   6.812500E-01    3.125000E-02    1.181198E+01   -5.228389E+01    1.998240E+03    1.998924E+03
   6.937500E-01    3.125000E-02    1.185113E+01   -5.435464E+01    1.972443E+03    1.973192E+03
   7.062500E-01    3.125000E-02    1.189191E+01   -5.669673E+01    1.945568E+03    1.946394E+03
   7.187500E-01    3.125000E-02    1.193451E+01   -5.930778E+01    1.917480E+03    1.918397E+03
   7.312500E-01    3.125000E-02    1.197913E+01   -6.218183E+01    1.888046E+03    1.889070E+03
   7.437500E-01    3.125000E-02    1.202595E+01   -6.530755E+01    1.857134E+03    1.858282E+03
   7.562500E-01    3.125000E-02    1.207517E+01   -6.866581E+01    1.824619E+03    1.825910E+03
   7.687500E-01    3.125000E-02    1.212693E+01   -7.222640E+01    1.790381E+03    1.791838E+03
   7.812500E-01    3.125000E-02    1.218138E+01   -7.594325E+01    1.754319E+03    1.755962E+03
   7.937500E-01    3.125000E-02    1.223861E+01   -7.974790E+01    1.716348E+03    1.718199E+03
   8.062500E-01    3.125000E-02    1.229866E+01   -8.353994E+01    1.676417E+03    1.678497E+03
   8.187500E-01    3.125000E-02    1.236147E+01   -8.717314E+01    1.634519E+03    1.636842E+03
   8.312500E-01    3.125000E-02    1.242686E+01   -9.043495E+01    1.590715E+03    1.593284E+03
   8.437500E-01    3.125000E-02    1.249446E+01   -9.301532E+01    1.545158E+03    1.547955E+03
   8.562500E-01    3.125000E-02    1.256364E+01   -9.445849E+01    1.498133E+03    1.501108E+03
   8.687500E-01    3.125000E-02    1.263337E+01   -9.408648E+01    1.450119E+03    1.453168E+03
   8.812500E-01    3.125000E-02    1.270200E+01   -9.087381E+01    1.401865E+03    1.404807E+03
   8.937500E-01    3.125000E-02    1.276701E+01   -8.323625E+01    1.354508E+03    1.357063E+03
   9.062500E-01    3.125000E-02    1.282441E+01   -6.866173E+01    1.309734E+03    1.311532E+03
   9.187500E-01    3.125000E-02    1.286798E+01   -4.304136E+01    1.269995E+03    1.270724E+03
   9.312500E-01    3.125000E-02    1.288771E+01    5.886077E-01    1.238754E+03    1.238754E+03
   9.437500E-01    3.125000E-02    1.286711E+01    7.448995E+01    1.220608E+03    1.222879E+03
   9.562500E-01    3.125000E-02    1.277816E+01    2.010526E+02    1.220705E+03    1.237151E+03
   9.687500E-01    3.125000E-02    1.257145E+01    4.221454E+02    1.241270E+03    1.311091E+03
   9.812500E-01    3.125000E-02    1.215736E+01    8.148970E+02    1.267635E+03    1.506969E+03
   9.937500E-01    3.125000E-02    1.137307E+01    1.502838E+03    1.216695E+03    1.933615E+03
   1.006250E+00    3.125000E-02    9.947305E+00    2.556267E+03    7.506088E+02    2.664191E+03
   1.018750E+00    3.125000E-02    7.613855E+00    0.000000E+00    0.000000E+00    0.000000E+00
   6.250000E-03    4.375000E-02   -8.836966E+00   -5.000000E+03    0.000000E+00    5.000000E+03
   1.875000E-02    4.375000E-02   -6.021223E+00   -3.487300E+03    7.784101E+03    8.529565E+03
   3.125000E-02    4.375000E-02   -3.826478E+00   -2.736286E+03    7.350103E+03    7.842912E+03
   4.375000E-02    4.375000E-02   -2.089777E+00   -2.186192E+03    6.882962E+03    7.221815E+03
   5.625000E-02    4.375000E-02   -6.853976E-01   -1.785138E+03    6.437090E+03    6.680033E+03
   6.875000E-02    4.375000E-02    4.750760E-01   -1.487961E+03    6.030487E+03    6.211345E+03
   8.125000E-02    4.375000E-02    1.452478E+00   -1.262474E+03    5.665992E+03    5.804938E+03
   9.375000E-02    4.375000E-02    2.288975E+00   -1.087081E+03    5.340865E+03    5.450375E+03
   1.062500E-01    4.375000E-02    3.014376E+00   -9.474492E+02    5.050753E+03    5.138849E+03
   1.187500E-01    4.375000E-02    3.650253E+00   -8.339694E+02    4.791210E+03    4.863250E+03
   1.312500E-01    4.375000E-02    4.212607E+00   -7.400755E+02    4.558217E+03    4.617906E+03
   1.437500E-01    4.375000E-02    4.713580E+00   -6.611814E+02    4.348306E+03    4.398287E+03
   1.562500E-01    4.375000E-02    5.162581E+00   -5.940113E+02    4.158538E+03    4.200748E+03
   1.687500E-01    4.375000E-02    5.567045E+00   -5.361755E+02    3.986434E+03    4.022330E+03
   1.812500E-01    4.375000E-02    5.932948E+00   -4.858953E+02    3.829900E+03    3.860600E+03
   1.937500E-01    4.375000E-02    6.265170E+00   -4.418228E+02    3.687161E+03    3.713538E+03
   2.062500E-01    4.375000E-02    6.567751E+00   -4.029191E+02    3.556701E+03    3.579451E+03
   2.187500E-01    4.375000E-02    6.844077E+00   -3.683712E+02    3.437219E+03    3.456902E+03
   2.312500E-01    4.375000E-02    7.097020E+00   -3.375341E+02    3.327586E+03    3.344661E+03
   2.437500E-01    4.375000E-02    7.329039E+00   -3.098892E+02    3.226823E+03    3.241669E+03
   2.562500E-01    4.375000E-02    7.542263E+00   -2.850147E+02    3.134069E+03    3.147002E+03
   2.687500E-01    4.375000E-02    7.738543E+00   -2.625638E+02    3.048566E+03    3.059852E+03
   2.812500E-01    4.375000E-02    7.919509E+00   -2.422483E+02    2.969641E+03    2.979505E+03
   2.937500E-01    4.375000E-02    8.086601E+00   -2.238267E+02    2.896693E+03    2.905328E+03
   3.062500E-01    4.375000E-02    8.241100E+00   -2.070947E+02    2.829185E+03    2.836755E+03
   3.187500E-01    4.375000E-02    8.384151E+00   -1.918783E+02    2.766633E+03    2.773279E+03
   3.312500E-01    4.375000E-02    8.516787E+00   -1.780282E+02    2.708599E+03    2.714444E+03
   3.437500E-01    4.375000E-02    8.639939E+00   -1.654153E+02    2.654686E+03    2.659834E+03
   3.562500E-01    4.375000E-02    8.754453E+00   -1.539277E+02    2.604530E+03    2.609075E+03
   3.687500E-01    4.375000E-02    8.861099E+00   -1.434677E+02    2.557801E+03    2.561821E+03
   3.812500E-01    4.375000E-02    8.960584E+00   -1.339495E+02    2.514195E+03    2.517761E+03
   3.937500E-01    4.375000E-02    9.053555E+00   -1.252979E+02    2.473431E+03    2.476603E+03
   4.062500E-01    4.375000E-02    9.140610E+00   -1.174466E+02    2.435252E+03    2.438083E+03
   4.187500E-01    4.375000E-02    9.222300E+00   -1.103368E+02    2.399417E+03    2.401953E+03
   4.312500E-01    4.375000E-02    9.299140E+00   -1.039169E+02    2.365703E+03    2.367984E+03
   4.437500E-01    4.375000E-02    9.371606E+00   -9.814094E+01    2.333903E+03    2.335965E+03
   4.562500E-01    4.375000E-02    9.440147E+00   -9.296853E+01    2.303820E+03    2.305695E+03
   4.687500E-01    4.375000E-02    9.505182E+00   -8.836400E+01    2.275273E+03    2.276988E+03
   4.812500E-01    4.375000E-02    9.567107E+00   -8.429605E+01    2.248087E+03    2.249667E+03
   4.937500E-01    4.375000E-02    9.626297E+00   -8.073733E+01    2.222100E+03    2.223566E+03
   5.062500E-01    4.375000E-02    9.683109E+00   -7.766409E+01    2.197154E+03    2.198526E+03
   5.187500E-01    4.375000E-02    9.737883E+00   -7.505595E+01    2.173101E+03    2.174397E+03
   5.312500E-01    4.375000E-02    9.790948E+00   -7.289561E+01    2.149798E+03    2.151033E+03
   5.437500E-01    4.375000E-02    9.842618E+00   -7.116864E+01    2.127105E+03    2.128295E+03
   5.562500E-01    4.375000E-02    9.893201E+00   -6.986333E+01    2.104887E+03    2.106047E+03
   5.687500E-01    4.375000E-02    9.942997E+00   -6.897046E+01    2.083015E+03    2.084156E+03
   5.812500E-01    4.375000E-02    9.992297E+00   -6.848317E+01    2.061358E+03    2.062495E+03
   5.937500E-01    4.375000E-02    1.004139E+01   -6.839678E+01    2.039789E+03    2.040935E+03
   6.062500E-01    4.375000E-02    1.009057E+01   -6.870864E+01    2.018181E+03    2.019350E+03
   6.187500E-01    4.375000E-02    1.014011E+01   -6.941792E+01    1.996409E+03    1.997616E+03
   6.312500E-01    4.375000E-02    1.019031E+01   -7.052537E+01    1.974347E+03    1.975606E+03
   6.437500E-01    4.375000E-02    1.024144E+01   -7.203309E+01    1.951867E+03    1.953195E+03
   6.562500E-01    4.375000E-02    1.029380E+01   -7.394418E+01    1.928840E+03    1.930257E+03
   6.687500E-01    4.375000E-02    1.034768E+01   -7.626227E+01    1.905137E+03    1.906662E+03
   6.812500E-01    4.375000E-02    1.040337E+01   -7.899102E+01    1.880625E+03    1.882283E+03
   6.937500E-01    4.375000E-02    1.046118E+01   -8.213331E+01    1.855171E+03    1.856988E+03
   7.062500E-01    4.375000E-02    1.052138E+01   -8.569028E+01    1.828638E+03    1.830644E+03
   7.187500E-01    4.375000E-02    1.058429E+01   -8.966000E+01    1.800888E+03    1.803119E+03
   7.312500E-01    4.375000E-02    1.065020E+01   -9.403565E+01    1.771784E+03    1.774277E+03
   7.437500E-01    4.375000E-02    1.071940E+01   -9.880314E+01    1.741185E+03    1.743986E+03
   7.562500E-01    4.375000E-02    1.079216E+01   -1.039378E+02    1.708955E+03    1.712113E+03
   7.687500E-01    4.375000E-02    1.086874E+01   -1.093996E+02    1.674961E+03    1.678530E+03
   7.812500E-01    4.375000E-02    1.094935E+01   -1.151273E+02    1.639077E+03    1.643115E+03
   7.937500E-01    4.375000E-02    1.103415E+01   -1.210293E+02    1.601189E+03    1.605756E+03
   8.062500E-01    4.375000E-02    1.112324E+01   -1.269710E+02    1.561201E+03    1.566356E+03