TITLE = "2d Diffusion Data"
VARIABLES = "X", "Y", "T", "QX", "QY", "QMAG"
ZONE T="Zone 1", I=162, J=82, DATAPACKING=POINT, ZONETYPE=ORDERED
   3.125000E-03    3.125000E-03    1.500000E+01   -5.000000E+03    0.000000E+00    5.000000E+03
   9.375000E-03    3.125000E-03    1.500000E+01    0.000000E+00    0.000000E+00    0.000000E+00
   1.562500E-02    3.125000E-03    1.500000E+01    0.000000E+00    0.000000E+00    0.000000E+00
   2.187500E-02    3.125000E-03    1.500000E+01    0.000000E+00    0.000000E+00    0.000000E+00
   2.812500E-02    3.125000E-03    1.500000E+01    0.000000E+00    0.000000E+00    0.000000E+00
   3.437500E-02    3.125000E-03    1.500000E+01    0.000000E+00    0.000000E+00    0.000000E+00
   4.062500E-02    3.125000E-03    1.500000E+01    0.000000E+00    0.000000E+00    0.000000E+00
   4.687500E-02    3.125000E-03    1.500000E+01    0.000000E+00    0.000000E+00    0.000000E+00
   5.312500E-02    3.125000E-03    1.500000E+01    0.000000E+00    0.000000E+00    0.000000E+00
   5.937500E-02    3.125000E-03    1.500000E+01    0.000000E+00    0.000000E+00    0.000000E+00
   6.562500E-02    3.125000E-03    1.500000E+01    0.000000E+00    0.000000E+00    0.000000E+00
   7.187500E-02    3.125000E-03    1.500000E+01    0.000000E+00    0.000000E+00    0.000000E+00
   7.812500E-02    3.125000E-03    1.500000E+01    0.000000E+00    0.000000E+00    0.000000E+00
   8.437500E-02    3.125000E-03    1.500000E+01    0.000000E+00    0.000000E+00    0.000000E+00
   9.062500E-02    3.125000E-03    1.500000E+01    0.000000E+00    0.000000E+00    0.000000E+00
   9.687500E-02    3.125000E-03    1.500000E+01    0.000000E+00    0.000000E+00    0.000000E+00
   1.031250E-01    3.125000E-03    1.500000E+01    0.000000E+00    0.000000E+00    0.000000E+00
   1.093750E-01    3.125000E-03    1.500000E+01    0.000000E+00    0.000000E+00    0.000000E+00
   1.156250E-01    3.125000E-03    1.500000E+01    0.000000E+00    0.000000E+00    0.000000E+00
   1.218750E-01    3.125000E-03    1.500000E+01    0.000000E+00    0.000000E+00    0.000000E+00
   1.281250E-01    3.125000E-03    1.500000E+01    0.000000E+00    0.000000E+00    0.000000E+00
   1.343750E-01    3.125000E-03    1.500000E+01    0.000000E+00    0.000000E+00    0.000000E+00
   1.406250E-01    3.125000E-03    1.500000E+01    0.000000E+00    0.000000E+00    0.000000E+00
   1.468750E-01    3.125000E-03    1.500000E+01    0.000000E+00    0.000000E+00    0.000000E+00
   1.531250E-01    3.125000E-03    1.500000E+01    0.000000E+00    0.000000E+00    0.000000E+00
   1.593750E-01    3.125000E-03    1.500000E+01    0.000000E+00    0.000000E+00    0.000000E+00
   1.656250E-01    3.125000E-03    1.500000E+01    0.000000E+00    0.000000E+00    0.000000E+00
   1.718750E-01    3.125000E-03    1.500000E+01    0.000000E+00    0.000000E+00    0.000000E+00
   1.781250E-01    3.125000E-03    1.500000E+01    0.000000E+00    0.000000E+00    0.000000E+00
   1.843750E-01    3.125000E-03    1.500000E+01    0.000000E+00    0.000000E+00    0.000000E+00
   1.906250E-01    3.125000E-03    1.500000E+01    0.000000E+00    0.000000E+00    0.000000E+00
   1.968750E-01    3.125000E-03    1.500000E+01    0.000000E+00    0.000000E+00    0.000000E+00
   2.031250E-01    3.125000E-03    1.500000E+01    0.000000E+00    0.000000E+00    0.000000E+00
   2.093750E-01    3.125000E-03    1.500000E+01    0.000000E+00    0.000000E+00    0.000000E+00
   2.156250E-01    3.125000E-03    1.500000E+01    0.000000E+00    0.000000E+00    0.000000E+00
   2.218750E-01    3.125000E-03    1.500000E+01    0.000000E+00    0.000000E+00    0.000000E+00
   2.281250E-01    3.125000E-03    1.500000E+01    0.000000E+00    0.000000E+00    0.000000E+00
   2.343750E-01    3.125000E-03    1.500000E+01    0.000000E+00    0.000000E+00    0.000000E+00
   2.406250E-01    3.125000E-03    1.500000E+01    0.000000E+00    0.000000E+00    0.000000E+00
   2.468750E-01    3.125000E-03    1.500000E+01    0.000000E+00    0.000000E+00    0.000000E+00
   2.531250E-01    3.125000E-03    1.500000E+01    0.000000E+00    0.000000E+00    0.000000E+00
   2.593750E-01    3.125000E-03    1.500000E+01    0.000000E+00    0.000000E+00    0.000000E+00
   2.656250E-01    3.125000E-03    1.500000E+01    0.000000E+00    0.000000E+00    0.000000E+00
   2.718750E-01    3.125000E-03    1.500000E+01    0.000000E+00    0.000000E+00    0.000000E+00
   2.781250E-01    3.125000E-03    1.500000E+01    0.000000E+00    0.000000E+00    0.000000E+00
   2.843750E-01    3.125000E-03    1.500000E+01    0.000000E+00    0.000000E+00    0.000000E+00
   2.906250E-01    3.125000E-03    1.500000E+01    0.000000E+00    0.000000E+00    0.000000E+00
   2.968750E-01    3.125000E-03    1.500000E+01    0.000000E+00    0.000000E+00    0.000000E+00
   3.031250E-01    3.125000E-03    1.500000E+01    0.000000E+00    0.000000E+00    0.000000E+00
   3.093750E-01    3.125000E-03    1.500000E+01    0.000000E+00    0.000000E+00    0.000000E+00
   3.156250E-01    3.125000E-03    1.500000E+01    0.000000E+00    0.000000E+00    0.000000E+00
   3.218750E-01    3.125000E-03    1.500000E+01    0.000000E+00    0.000000E+00    0.000000E+00
   3.281250E-01    3.125000E-03    1.500000E+01    0.000000E+00    0.000000E+00    0.000000E+00
   3.343750E-01    3.125000E-03    1.500000E+01    0.000000E+00    0.000000E+00    0.000000E+00
   3.406250E-01    3.125000E-03    1.500000E+01    0.000000E+00    0.000000E+00    0.000000E+00
   3.468750E-01    3.125000E-03    1.500000E+01    0.000000E+00    0.000000E+00    0.000000E+00
   3.531250E-01    3.125000E-03    1.500000E+01    0.000000E+00    0.000000E+00    0.000000E+00
   3.593750E-01    3.125000E-03    1.500000E+01    0.000000E+00    0.000000E+00    0.000000E+00
   3.656250E-01    3.125000E-03    1.500000E+01    0.000000E+00    0.000000E+00    0.000000E+00
   3.718750E-01    3.125000E-03    1.500000E+01    0.000000E+00    0.000000E+00    0.000000E+00
   3.781250E-01    3.125000E-03    1.500000E+01    0.000000E+00    0.000000E+00    0.000000E+00
   3.843750E-01    3.125000E-03    1.500000E+01    0.000000E+00    0.000000E+00    0.000000E+00
   3.906250E-01    3.125000E-03    1.500000E+01    0.000000E+00    0.000000E+00    0.000000E+00
   3.968750E-01    3.125000E-03    1.500000E+01    0.000000E+00    0.000000E+00    0.000000E+00
   4.031250E-01    3.125000E-03    1.500000E+01    0.000000E+00    0.000000E+00    0.000000E+00
   4.093750E-01    3.125000E-03    1.500000E+01    0.000000E+00    0.000000E+00    0.000000E+00
   4.156250E-01    3.125000E-03    1.500000E+01    0.000000E+00    0.000000E+00    0.000000E+00
   4.218750E-01    3.125000E-03    1.500000E+01    0.000000E+00    0.000000E+00    0.000000E+00
   4.281250E-01    3.125000E-03    1.500000E+01    0.000000E+00    0.000000E+00    0.000000E+00
   4.343750E-01    3.125000E-03    1.500000E+01    0.000000E+00    0.000000E+00    0.000000E+00
   4.406250E-01    3.125000E-03    1.500000E+01    0.000000E+00    0.000000E+00    0.000000E+00
   4.468750E-01    3.125000E-03    1.500000E+01    0.000000E+00    0.000000E+00    0.000000E+00
   4.531250E-01    3.125000E-03    1.500000E+01    0.000000E+00    0.000000E+00    0.000000E+00
   4.593750E-01    3.125000E-03    1.500000E+01    0.000000E+00    0.000000E+00    0.000000E+00
   4.656250E-01    3.125000E-03    1.500000E+01    0.000000E+00    0.000000E+00    0.000000E+00
   4.718750E-01    3.125000E-03    1.500000E+01    0.000000E+00    0.000000E+00    0.000000E+00
   4.781250E-01    3.125000E-03    1.500000E+01    0.000000E+00    0.000000E+00    0.000000E+00
   4.843750E-01    3.125000E-03    1.500000E+01    0.000000E+00    0.000000E+00    0.000000E+00
   4.906250E-01    3.125000E-03    1.500000E+01    0.000000E+00    0.000000E+00    0.000000E+00
   4.968750E-01    3.125000E-03    1.500000E+01    0.000000E+00    0.000000E+00    0.000000E+00
   5.031250E-01    3.125000E-03    1.500000E+01    0.000000E+00    0.000000E+00    0.000000E+00
   5.093750E-01    3.125000E-03    1.500000E+01    0.000000E+00    0.000000E+00    0.000000E+00
   5.156250E-01    3.125000E-03    1.500000E+01    0.000000E+00    0.000000E+00    0.000000E+00
   5.218750E-01    3.125000E-03    1.500000E+01    0.000000E+00    0.000000E+00    0.000000E+00
   5.281250E-01    3.125000E-03    1.500000E+01    0.000000E+00    0.000000E+00    0.000000E+00
   5.343750E-01    3.125000E-03    1.500000E+01    0.000000E+00    0.000000E+00    0.000000E+00
   5.406250E-01    3.125000E-03    1.500000E+01    0.000000E+00    0.000000E+00    0.000000E+00
   5.468750E-01    3.125000E-03    1.500000E+01    0.000000E+00    0.000000E+00    0.000000E+00
   5.531250E-01    3.125000E-03    1.500000E+01    0.000000E+00    0.000000E+00    0.000000E+00
   5.593750E-01    3.125000E-03    1.500000E+01    0.000000E+00    0.000000E+00    0.000000E+00
   5.656250E-01    3.125000E-03    1.500000E+01    0.000000E+00    0.000000E+00    0.000000E+00
   5.718750E-01    3.125000E-03    1.500000E+01    0.000000E+00    0.000000E+00    0.000000E+00
   5.781250E-01    3.125000E-03    1.500000E+01    0.000000E+00    0.000000E+00    0.000000E+00
   5.843750E-01    3.125000E-03    1.500000E+01    0.000000E+00    0.000000E+00    0.000000E+00
   5.906250E-01    3.125000E-03    1.500000E+01    0.000000E+00    0.000000E+00    0.000000E+00
   5.968750E-01    3.125000E-03    1.500000E+01    0.000000E+00    0.000000E+00    0.000000E+00
   6.031250E-01    3.125000E-03    1.500000E+01    0.000000E+00    0.000000E+00    0.000000E+00
   6.093750E-01    3.125000E-03    1.500000E+01    0.000000E+00    0.000000E+00    0.000000E+00
   6.156250E-01    3.125000E-03    1.500000E+01    0.000000E+00    0.000000E+00    0.000000E+00
   6.218750E-01    3.125000E-03    1.500000E+01    0.000000E+00    0.000000E+00    0.000000E+00
   6.281250E-01    3.125000E-03    1.500000E+01    0.000000E+00    0.000000E+00    0.000000E+00
   6.343750E-01    3.125000E-03    1.500000E+01    0.000000E+00    0.000000E+00    0.000000E+00
   6.406250E-01    3.125000E-03    1.500000E+01    0.000000E+00    0.000000E+00    0.000000E+00
   6.468750E-01    3.125000E-03    1.500000E+01    0.000000E+00    0.000000E+00    0.000000E+00
   6.531250E-01    3.125000E-03    1.500000E+01    0.000000E+00    0.000000E+00    0.000000E+00
   6.593750E-01    3.125000E-03    1.500000E+01    0.000000E+00    0.000000E+00    0.000000E+00
   6.656250E-01    3.125000E-03    1.500000E+01    0.000000E+00    0.000000E+00    0.000000E+00
   6.718750E-01    3.125000E-03    1.500000E+01    0.000000E+00    0.000000E+00    0.000000E+00
   6.781250E-01    3.125000E-03    1.500000E+01    0.000000E+00    0.000000E+00    0.000000E+00
   6.843750E-01    3.125000E-03    1.500000E+01    0.000000E+00    0.000000E+00    0.000000E+00
   6.906250E-01    3.125000E-03    1.500000E+01    0.000000E+00    0.000000E+00    0.000000E+00
   6.968750E-01    3.125000E-03    1.500000E+01    0.000000E+00    0.000000E+00    0.000000E+00
   7.031250E-01    3.125000E-03    1.500000E+01    0.000000E+00    0.000000E+00    0.000000E+00
   7.093750E-01    3.125000E-03    1.500000E+01    0.000000E+00    0.000000E+00    0.000000E+00
   7.156250E-01    3.125000E-03    1.500000E+01    0.000000E+00    0.000000E+00    0.000000E+00
   7.218750E-01    3.125000E-03    1.500000E+01    0.000000E+00    0.000000E+00    0.000000E+00
   7.281250E-01    3.125000E-03    1.500000E+01    0.000000E+00    0.000000E+00    0.000000E+00
   7.343750E-01    3.125000E-03    1.500000E+01    0.000000E+00    0.000000E+00    0.000000E+00
   7.406250E-01    3.125000E-03    1.500000E+01    0.000000E+00    0.000000E+00    0.000000E+00
   7.468750E-01    3.125000E-03    1.500000E+01    0.000000E+00    0.000000E+00    0.000000E+00
   7.531250E-01    3.125000E-03    1.500000E+01    0.000000E+00    0.000000E+00    0.000000E+00
   7.593750E-01    3.125000E-03    1.500000E+01    0.000000E+00    0.000000E+00    0.000000E+00
   7.656250E-01    3.125000E-03    1.500000E+01    0.000000E+00    0.000000E+00    0.000000E+00
   7.718750E-01    3.125000E-03    1.500000E+01    0.000000E+00    0.000000E+00    0.000000E+00
   7.781250E-01    3.125000E-03    1.500000E+01    0.000000E+00    0.000000E+00    0.000000E+00
   7.843750E-01    3.125000E-03    1.500000E+01    0.000000E+00    0.000000E+00    0.000000E+00
   7.906250E-01    3.125000E-03    1.500000E+01    0.000000E+00    0.000000E+00    0.000000E+00
   7.968750E-01    3.125000E-03    1.500000E+01    0.000000E+00    0.000000E+00    0.000000E+00
   8.031250E-01    3.125000E-03    1.500000E+01    0.000000E+00    0.000000E+00    0.000000E+00
   8.093750E-01    3.125000E-03    1.500000E+01    0.000000E+00    0.000000E+00    0.000000E+00
   8.156250E-01    3.125000E-03    1.500000E+01    0.000000E+00    0.000000E+00    0.000000E+00
   8.218750E-01    3.125000E-03    1.500000E+01    0.000000E+00    0.000000E+00    0.000000E+00
   8.281250E-01    3.125000E-03    1.500000E+01    0.000000E+00    0.000000E+00    0.000000E+00
   8.343750E-01    3.125000E-03    1.500000E+01    0.000000E+00    0.000000E+00    0.000000E+00
   8.406250E-01    3.125000E-03    1.500000E+01    0.000000E+00    0.000000E+00    0.000000E+00
   8.468750E-01    3.125000E-03    1.500000E+01    0.000000E+00    0.000000E+00    0.000000E+00
   8.531250E-01    3.125000E-03    1.500000E+01    0.000000E+00    0.000000E+00    0.000000E+00
   8.593750E-01    3.125000E-03    1.500000E+01    0.000000E+00    0.000000E+00    0.000000E+00
   8.656250E-01    3.125000E-03    1.500000E+01    0.000000E+00    0.000000E+00    0.000000E+00
   8.718750E-01    3.125000E-03    1.500000E+01    0.000000E+00    0.000000E+00    0.000000E+00
   8.781250E-01    3.125000E-03    1.500000E+01    0.000000E+00    0.000000E+00    0.000000E+00
   8.843750E-01    3.125000E-03    1.500000E+01    0.000000E+00    0.000000E+00    0.000000E+00
   8.906250E-01    3.125000E-03    1.500000E+01    0.000000E+00    0.000000E+00    0.000000E+00
   8.968750E-01    3.125000E-03    1.500000E+01    0.000000E+00    0.000000E+00    0.000000E+00
   9.031250E-01    3.125000E-03    1.500000E+01    0.000000E+00    0.000000E+00    0.000000E+00
   9.093750E-01    3.125000E-03    1.500000E+01    0.000000E+00    0.000000E+00    0.000000E+00
   9.156250E-01    3.125000E-03    1.500000E+01    0.000000E+00    0.000000E+00    0.000000E+00
   9.218750E-01    3.125000E-03    1.500000E+01    0.000000E+00    0.000000E+00    0.000000E+00
   9.281250E-01    3.125000E-03    1.500000E+01    0.000000E+00    0.000000E+00    0.000000E+00
   9.343750E-01    3.125000E-03    1.500000E+01    0.000000E+00    0.000000E+00    0.000000E+00
   9.406250E-01    3.125000E-03    1.500000E+01    0.000000E+00    0.000000E+00    0.000000E+00
   9.468750E-01    3.125000E-03    1.500000E+01    0.000000E+00    0.000000E+00    0.000000E+00
   9.531250E-01    3.125000E-03    1.500000E+01    0.000000E+00    0.000000E+00    0.000000E+00
   9.593750E-01    3.125000E-03    1.500000E+01    0.000000E+00    0.000000E+00    0.000000E+00
   9.656250E-01    3.125000E-03    1.500000E+01    0.000000E+00    0.000000E+00    0.000000E+00
   9.718750E-01    3.125000E-03    1.500000E+01    0.000000E+00    0.000000E+00    0.000000E+00
   9.781250E-01    3.125000E-03    1.500000E+01    0.000000E+00    0.000000E+00    0.000000E+00
   9.843750E-01    3.125000E-03    1.500000E+01    0.000000E+00    0.000000E+00    0.000000E+00
   9.906250E-01    3.125000E-03    1.500000E+01    0.000000E+00    0.000000E+00    0.000000E+00
   9.968750E-01    3.125000E-03    1.500000E+01    0.000000E+00    0.000000E+00    0.000000E+00
   1.003125E+00    3.125000E-03    1.500000E+01    0.000000E+00    0.000000E+00    0.000000E+00
   1.009375E+00    3.125000E-03    5.263255E+00    0.000000E+00    0.000000E+00    0.000000E+00
   3.125000E-03    9.375000E-03    6.719014E+00   -5.000000E+03    0.000000E+00    5.000000E+03
   9.375000E-03    9.375000E-03    7.672031E+00   -1.988587E+03    1.838169E+04    1.848895E+04
   1.562500E-02    9.375000E-03    8.244004E+00   -1.258089E+03    1.716074E+04    1.720679E+04
   2.187500E-02    9.375000E-03    8.636823E+00   -8.966023E+02    1.624762E+04    1.627234E+04
   2.812500E-02    9.375000E-03    8.931583E+00   -6.899346E+02    1.553234E+04    1.554766E+04
   3.437500E-02    9.375000E-03    9.165914E+00   -5.581442E+02    1.495059E+04    1.496100E+04
   4.062500E-02    9.375000E-03    9.359607E+00   -4.671780E+02    1.446344E+04    1.447098E+04
   4.687500E-02    9.375000E-03    9.524179E+00   -4.006754E+02    1.404624E+04    1.405195E+04
   5.312500E-02    9.375000E-03    9.666874E+00   -3.499358E+02    1.368264E+04    1.368711E+04
   5.937500E-02    9.375000E-03    9.792535E+00   -3.099360E+02    1.336131E+04    1.336491E+04
   6.562500E-02    9.375000E-03    9.904555E+00   -2.775803E+02    1.307414E+04    1.307709E+04
   7.187500E-02    9.375000E-03    1.000540E+01   -2.508585E+02    1.281514E+04    1.281759E+04
   7.812500E-02    9.375000E-03    1.009693E+01   -2.284086E+02    1.257973E+04    1.258181E+04
   8.437500E-02    9.375000E-03    1.018056E+01   -2.092754E+02    1.236440E+04    1.236617E+04
   9.062500E-02    9.375000E-03    1.025742E+01   -1.927692E+02    1.216634E+04    1.216787E+04
   9.687500E-02    9.375000E-03    1.032839E+01   -1.783795E+02    1.198332E+04    1.198464E+04
   1.031250E-01    9.375000E-03    1.039421E+01   -1.657204E+02    1.181348E+04    1.181464E+04
   1.093750E-01    9.375000E-03    1.045548E+01   -1.544949E+02    1.165532E+04    1.165635E+04
   1.156250E-01    9.375000E-03    1.051269E+01   -1.444706E+02    1.150757E+04    1.150848E+04
   1.218750E-01    9.375000E-03    1.056627E+01   -1.354632E+02    1.136915E+04    1.136996E+04
   1.281250E-01    9.375000E-03    1.061657E+01   -1.273244E+02    1.123916E+04    1.123988E+04
   1.343750E-01    9.375000E-03    1.066391E+01   -1.199339E+02    1.111680E+04    1.111745E+04
   1.406250E-01    9.375000E-03    1.070855E+01   -1.131929E+02    1.100140E+04    1.100198E+04
   1.468750E-01    9.375000E-03    1.075071E+01   -1.070195E+02    1.089236E+04    1.089288E+04
   1.531250E-01    9.375000E-03    1.079062E+01   -1.013453E+02    1.078916E+04    1.078964E+04
   1.593750E-01    9.375000E-03    1.082843E+01   -9.611274E+01    1.069134E+04    1.069178E+04
   1.656250E-01    9.375000E-03    1.086432E+01   -9.127295E+01    1.059850E+04    1.059889E+04
   1.718750E-01    9.375000E-03    1.089843E+01   -8.678428E+01    1.051026E+04    1.051062E+04
   1.781250E-01    9.375000E-03    1.093088E+01   -8.261097E+01    1.042630E+04    1.042663E+04
   1.843750E-01    9.375000E-03    1.096178E+01   -7.872213E+01    1.034633E+04    1.034663E+04
   1.906250E-01    9.375000E-03    1.099124E+01   -7.509096E+01    1.027007E+04    1.027035E+04
   1.968750E-01    9.375000E-03    1.101936E+01   -7.169409E+01    1.019729E+04    1.019755E+04
   2.031250E-01    9.375000E-03    1.104622E+01   -6.851105E+01    1.012777E+04    1.012800E+04
   2.093750E-01    9.375000E-03    1.107190E+01   -6.552382E+01    1.006130E+04    1.006152E+04
   2.156250E-01    9.375000E-03    1.109647E+01   -6.271649E+01    9.997702E+03    9.997898E+03
   2.218750E-01    9.375000E-03    1.112000E+01   -6.007495E+01    9.936799E+03    9.936980E+03
   2.281250E-01    9.375000E-03    1.114254E+01   -5.758665E+01    9.878437E+03    9.878604E+03
   2.343750E-01    9.375000E-03    1.116416E+01   -5.524037E+01    9.822469E+03    9.822624E+03
   2.406250E-01    9.375000E-03    1.118491E+01   -5.302607E+01    9.768761E+03    9.768905E+03
   2.468750E-01    9.375000E-03    1.120483E+01   -5.093474E+01    9.717186E+03    9.717319E+03
   2.531250E-01    9.375000E-03    1.122397E+01   -4.895823E+01    9.667626E+03    9.667750E+03
   2.593750E-01    9.375000E-03    1.124237E+01   -4.708921E+01    9.619973E+03    9.620088E+03
   2.656250E-01    9.375000E-03    1.126008E+01   -4.532103E+01    9.574123E+03    9.574230E+03
   2.718750E-01    9.375000E-03    1.127713E+01   -4.364764E+01    9.529978E+03    9.530078E+03
   2.781250E-01    9.375000E-03    1.129355E+01   -4.206356E+01    9.487448E+03    9.487542E+03
   2.843750E-01    9.375000E-03    1.130938E+01   -4.056376E+01    9.446448E+03    9.446535E+03
   2.906250E-01    9.375000E-03    1.132466E+01   -3.914368E+01    9.406895E+03    9.406976E+03
   2.968750E-01    9.375000E-03    1.133940E+01   -3.779911E+01    9.368713E+03    9.368789E+03
   3.031250E-01    9.375000E-03    1.135364E+01   -3.652623E+01    9.331829E+03    9.331900E+03
   3.093750E-01    9.375000E-03    1.136741E+01   -3.532151E+01    9.296173E+03    9.296240E+03
   3.156250E-01    9.375000E-03    1.138073E+01   -3.418170E+01    9.261681E+03    9.261744E+03
   3.218750E-01    9.375000E-03    1.139362E+01   -3.310381E+01    9.228288E+03    9.228348E+03
   3.281250E-01    9.375000E-03    1.140612E+01   -3.208510E+01    9.195936E+03    9.195992E+03
   3.343750E-01    9.375000E-03    1.141823E+01   -3.112302E+01    9.164566E+03    9.164619E+03
   3.406250E-01    9.375000E-03    1.142998E+01   -3.021524E+01    9.134123E+03    9.134173E+03
   3.468750E-01    9.375000E-03    1.144140E+01   -2.935960E+01    9.104556E+03    9.104603E+03
   3.531250E-01    9.375000E-03    1.145250E+01   -2.855409E+01    9.075812E+03    9.075857E+03
   3.593750E-01    9.375000E-03    1.146330E+01   -2.779688E+01    9.047844E+03    9.047886E+03
   3.656250E-01    9.375000E-03    1.147382E+01   -2.708624E+01    9.020604E+03    9.020644E+03
   3.718750E-01    9.375000E-03    1.148407E+01   -2.642062E+01    8.994046E+03    8.994085E+03
   3.781250E-01    9.375000E-03    1.149408E+01   -2.579856E+01    8.968128E+03    8.968165E+03
   3.843750E-01    9.375000E-03    1.150385E+01   -2.521872E+01    8.942806E+03    8.942841E+03
   3.906250E-01    9.375000E-03    1.151342E+01   -2.467987E+01    8.918039E+03    8.918073E+03
   3.968750E-01    9.375000E-03    1.152278E+01   -2.418086E+01    8.893787E+03    8.893819E+03
   4.031250E-01    9.375000E-03    1.153196E+01   -2.372067E+01    8.870010E+03    8.870042E+03
   4.093750E-01    9.375000E-03    1.154097E+01   -2.329835E+01    8.846672E+03    8.846703E+03
   4.156250E-01    9.375000E-03    1.154983E+01   -2.291301E+01    8.823735E+03    8.823764E+03
   4.218750E-01    9.375000E-03    1.155854E+01   -2.256389E+01    8.801161E+03    8.801190E+03
   4.281250E-01    9.375000E-03    1.156713E+01   -2.225026E+01    8.778917E+03    8.778945E+03
   4.343750E-01    9.375000E-03    1.157561E+01   -2.197150E+01    8.756967E+03    8.756994E+03
   4.406250E-01    9.375000E-03    1.158398E+01   -2.172702E+01    8.735276E+03    8.735303E+03
   4.468750E-01    9.375000E-03    1.159227E+01   -2.151634E+01    8.713811E+03    8.713838E+03
   4.531250E-01    9.375000E-03    1.160048E+01   -2.133901E+01    8.692539E+03    8.692565E+03
   4.593750E-01    9.375000E-03    1.160863E+01   -2.119466E+01    8.671426E+03    8.671452E+03
   4.656250E-01    9.375000E-03    1.161673E+01   -2.108298E+01    8.650441E+03    8.650466E+03
   4.718750E-01    9.375000E-03    1.162480E+01   -2.100371E+01    8.629550E+03    8.629575E+03
   4.781250E-01    9.375000E-03    1.163284E+01   -2.095666E+01    8.608721E+03    8.608747E+03
   4.843750E-01    9.375000E-03    1.164087E+01   -2.094170E+01    8.587924E+03    8.587949E+03
   4.906250E-01    9.375000E-03    1.164890E+01   -2.095873E+01    8.567125E+03    8.567151E+03
   4.968750E-01    9.375000E-03    1.165694E+01   -2.100773E+01    8.546294E+03    8.546320E+03
   5.031250E-01    9.375000E-03    1.166501E+01   -2.108873E+01    8.525398E+03    8.525424E+03
   5.093750E-01    9.375000E-03    1.167312E+01   -2.120180E+01    8.504405E+03    8.504432E+03
   5.156250E-01    9.375000E-03    1.168127E+01   -2.134708E+01    8.483285E+03    8.483312E+03
   5.218750E-01    9.375000E-03    1.168949E+01   -2.152475E+01    8.462004E+03    8.462031E+03
   5.281250E-01    9.375000E-03    1.169778E+01   -2.173505E+01    8.440530E+03    8.440558E+03
   5.343750E-01    9.375000E-03    1.170615E+01   -2.197828E+01    8.418831E+03    8.418860E+03
   5.406250E-01    9.375000E-03    1.171463E+01   -2.225477E+01    8.396875E+03    8.396904E+03
   5.468750E-01    9.375000E-03    1.172322E+01   -2.256491E+01    8.374627E+03    8.374657E+03
   5.531250E-01    9.375000E-03    1.173194E+01   -2.290917E+01    8.352054E+03    8.352085E+03
   5.593750E-01    9.375000E-03    1.174079E+01   -2.328804E+01    8.329122E+03    8.329155E+03
   5.656250E-01    9.375000E-03    1.174979E+01   -2.370207E+01    8.305797E+03    8.305831E+03
   5.718750E-01    9.375000E-03    1.175897E+01   -2.415188E+01    8.282043E+03    8.282078E+03
   5.781250E-01    9.375000E-03    1.176832E+01   -2.463813E+01    8.257824E+03    8.257861E+03
   5.843750E-01    9.375000E-03    1.177786E+01   -2.516154E+01    8.233104E+03    8.233142E+03
   5.906250E-01    9.375000E-03    1.178761E+01   -2.572289E+01    8.207845E+03    8.207886E+03
   5.968750E-01    9.375000E-03    1.179759E+01   -2.632300E+01    8.182010E+03    8.182053E+03
   6.031250E-01    9.375000E-03    1.180780E+01   -2.696277E+01    8.155560E+03    8.155604E+03
   6.093750E-01    9.375000E-03    1.181826E+01   -2.764315E+01    8.128454E+03    8.128501E+03
   6.156250E-01    9.375000E-03    1.182900E+01   -2.836514E+01    8.100652E+03    8.100702E+03
   6.218750E-01    9.375000E-03    1.184001E+01   -2.912982E+01    8.072112E+03    8.072165E+03
   6.281250E-01    9.375000E-03    1.185134E+01   -2.993830E+01    8.042791E+03    8.042847E+03
   6.343750E-01    9.375000E-03    1.186297E+01   -3.079177E+01    8.012645E+03    8.012704E+03
   6.406250E-01    9.375000E-03    1.187495E+01   -3.169150E+01    7.981629E+03    7.981692E+03
   6.468750E-01    9.375000E-03    1.188728E+01   -3.263878E+01    7.949696E+03    7.949763E+03
   6.531250E-01    9.375000E-03    1.189998E+01   -3.363500E+01    7.916798E+03    7.916870E+03
   6.593750E-01    9.375000E-03    1.191307E+01   -3.468161E+01    7.882886E+03    7.882962E+03
   6.656250E-01    9.375000E-03    1.192657E+01   -3.578010E+01    7.847909E+03    7.847991E+03
   6.718750E-01    9.375000E-03    1.194051E+01   -3.693204E+01    7.811815E+03    7.811903E+03
   6.781250E-01    9.375000E-03    1.195490E+01   -3.813906E+01    7.774550E+03    7.774644E+03
   6.843750E-01    9.375000E-03    1.196976E+01   -3.940287E+01    7.736059E+03    7.736159E+03
   6.906250E-01    9.375000E-03    1.198511E+01   -4.072521E+01    7.696283E+03    7.696391E+03
   6.968750E-01    9.375000E-03    1.200099E+01   -4.210791E+01    7.655165E+03    7.655281E+03
   7.031250E-01    9.375000E-03    1.201740E+01   -4.355284E+01    7.612643E+03    7.612768E+03
   7.093750E-01    9.375000E-03    1.203439E+01   -4.506193E+01    7.568654E+03    7.568788E+03
   7.156250E-01    9.375000E-03    1.205196E+01   -4.663716E+01    7.523134E+03    7.523279E+03
   7.218750E-01    9.375000E-03    1.207015E+01   -4.828055E+01    7.476017E+03    7.476172E+03
   7.281250E-01    9.375000E-03    1.208899E+01   -4.999417E+01    7.427232E+03    7.427400E+03
   7.343750E-01    9.375000E-03    1.210849E+01   -5.178010E+01    7.376710E+03    7.376891E+03
   7.406250E-01    9.375000E-03    1.212870E+01   -5.364045E+01    7.324377E+03    7.324574E+03
   7.468750E-01    9.375000E-03    1.214963E+01   -5.557734E+01    7.270159E+03    7.270371E+03
   7.531250E-01    9.375000E-03    1.217132E+01   -5.759286E+01    7.213978E+03    7.214208E+03
   7.593750E-01    9.375000E-03    1.219379E+01   -5.968907E+01    7.155756E+03    7.156005E+03
   7.656250E-01    9.375000E-03    1.221709E+01   -6.186795E+01    7.095410E+03    7.095680E+03
   7.718750E-01    9.375000E-03    1.224124E+01   -6.413141E+01    7.032859E+03    7.033151E+03
   7.781250E-01    9.375000E-03    1.226627E+01   -6.648119E+01    6.968015E+03    6.968333E+03
   7.843750E-01    9.375000E-03    1.229222E+01   -6.891884E+01    6.900794E+03    6.901138E+03
   7.906250E-01    9.375000E-03    1.231912E+01   -7.144565E+01    6.831107E+03    6.831480E+03
   7.968750E-01    9.375000E-03    1.234701E+01   -7.406256E+01    6.758864E+03    6.759270E+03
   8.031250E-01    9.375000E-03    1.237592E+01   -7.677007E+01    6.683975E+03    6.684416E+03
   8.093750E-01    9.375000E-03    1.240588E+01   -7.956805E+01    6.606350E+03    6.606829E+03
   8.156250E-01    9.375000E-03    1.243694E+01   -8.245566E+01    6.525898E+03    6.526419E+03
   8.218750E-01    9.375000E-03    1.246912E+01   -8.543106E+01    6.442531E+03    6.443098E+03
   8.281250E-01    9.375000E-03    1.250245E+01   -8.849117E+01    6.356162E+03    6.356778E+03
   8.343750E-01    9.375000E-03    1.253698E+01   -9.163130E+01    6.266708E+03    6.267378E+03
   8.406250E-01    9.375000E-03    1.257272E+01   -9.484471E+01    6.174090E+03    6.174818E+03
   8.468750E-01    9.375000E-03    1.260971E+01   -9.812201E+01    6.078238E+03    6.079030E+03
   8.531250E-01    9.375000E-03    1.264797E+01   -1.014503E+02    5.979093E+03    5.979954E+03
   8.593750E-01    9.375000E-03    1.268751E+01   -1.048124E+02    5.876608E+03    5.877543E+03
   8.656250E-01    9.375000E-03    1.272835E+01   -1.081850E+02    5.770757E+03    5.771771E+03
   8.718750E-01    9.375000E-03    1.277047E+01   -1.115372E+02    5.661537E+03    5.662636E+03
   8.781250E-01    9.375000E-03    1.281388E+01   -1.148278E+02    5.548982E+03    5.550170E+03
   8.843750E-01    9.375000E-03    1.285853E+01   -1.180018E+02    5.433166E+03    5.434447E+03
   8.906250E-01    9.375000E-03    1.290437E+01   -1.209853E+02    5.314228E+03    5.315605E+03
   8.968750E-01    9.375000E-03    1.295131E+01   -1.236787E+02    5.192383E+03    5.193855E+03
   9.031250E-01    9.375000E-03    1.299922E+01   -1.259465E+02    5.067955E+03    5.069520E+03
   9.093750E-01    9.375000E-03    1.304790E+01   -1.276021E+02    4.941417E+03    4.943064E+03
   9.156250E-01    9.375000E-03    1.309707E+01   -1.283855E+02    4.813441E+03    4.815152E+03
   9.218750E-01    9.375000E-03    1.314635E+01   -1.279289E+02    4.684979E+03    4.686726E+03
   9.281250E-01    9.375000E-03    1.319518E+01   -1.257016E+02    4.557383E+03    4.559116E+03