TITLE = "2d Diffusion Data"
VARIABLES = "X", "Y", "T", "QX", "QY", "QMAG"
ZONE T="Zone 1", I=22, J=12, DATAPACKING=POINT, ZONETYPE=ORDERED
   2.500000E-02    2.500000E-02    1.500000E+01   -5.000000E+03    0.000000E+00    5.000000E+03
   7.500000E-02    2.500000E-02    1.500000E+01    0.000000E+00    0.000000E+00    0.000000E+00
   1.250000E-01    2.500000E-02    1.500000E+01    0.000000E+00    0.000000E+00    0.000000E+00
   1.750000E-01    2.500000E-02    1.500000E+01    0.000000E+00    0.000000E+00    0.000000E+00
   2.250000E-01    2.500000E-02    1.500000E+01    0.000000E+00    0.000000E+00    0.000000E+00
   2.750000E-01    2.500000E-02    1.500000E+01    0.000000E+00    0.000000E+00    0.000000E+00
   3.250000E-01    2.500000E-02    1.500000E+01    0.000000E+00    0.000000E+00    0.000000E+00
   3.750000E-01    2.500000E-02    1.500000E+01    0.000000E+00    0.000000E+00    0.000000E+00
   4.250000E-01    2.500000E-02    1.500000E+01    0.000000E+00    0.000000E+00    0.000000E+00
   4.750000E-01    2.500000E-02    1.500000E+01    0.000000E+00    0.000000E+00    0.000000E+00
   5.250000E-01    2.500000E-02    1.500000E+01    0.000000E+00    0.000000E+00    0.000000E+00
   5.750000E-01    2.500000E-02    1.500000E+01    0.000000E+00    0.000000E+00    0.000000E+00
   6.250000E-01    2.500000E-02    1.500000E+01    0.000000E+00    0.000000E+00    0.000000E+00
   6.750000E-01    2.500000E-02    1.500000E+01    0.000000E+00    0.000000E+00    0.000000E+00
   7.250000E-01    2.500000E-02    1.500000E+01    0.000000E+00    0.000000E+00    0.000000E+00
   7.750000E-01    2.500000E-02    1.500000E+01    0.000000E+00    0.000000E+00    0.000000E+00
   8.250000E-01    2.500000E-02    1.500000E+01    0.000000E+00    0.000000E+00    0.000000E+00
   8.750000E-01    2.500000E-02    1.500000E+01    0.000000E+00    0.000000E+00    0.000000E+00
   9.250000E-01    2.500000E-02    1.500000E+01    0.000000E+00    0.000000E+00    0.000000E+00
   9.750000E-01    2.500000E-02    1.500000E+01    0.000000E+00    0.000000E+00    0.000000E+00
   1.025000E+00    2.500000E-02    1.500000E+01    0.000000E+00    0.000000E+00    0.000000E+00
   1.075000E+00    2.500000E-02    7.096517E+00    0.000000E+00    0.000000E+00    0.000000E+00
   2.500000E-02    7.500000E-02   -4.457418E+00   -5.000000E+03    0.000000E+00    5.000000E+03
   7.500000E-02    7.500000E-02    2.043359E+00   -1.873171E+03    4.057515E+03    4.469027E+03
   1.250000E-01    7.500000E-02    5.722859E+00   -1.106860E+03    3.020467E+03    3.216886E+03
   1.750000E-01    7.500000E-02    8.058902E+00   -7.225786E+02    2.302146E+03    2.412881E+03
   2.250000E-01    7.500000E-02    9.649917E+00   -5.005285E+02    1.790996E+03    1.859622E+03
   2.750000E-01    7.500000E-02    1.077917E+01   -3.589039E+02    1.419874E+03    1.464532E+03
   3.250000E-01    7.500000E-02    1.160048E+01   -2.627107E+02    1.146635E+03    1.176346E+03
   3.750000E-01    7.500000E-02    1.220694E+01   -1.948487E+02    9.434957E+02    9.634055E+02
   4.250000E-01    7.500000E-02    1.265944E+01   -1.459361E+02    7.913352E+02    8.046792E+02
   4.750000E-01    7.500000E-02    1.300007E+01   -1.103371E+02    6.765439E+02    6.854822E+02
   5.250000E-01    7.500000E-02    1.325910E+01   -8.444960E+01    5.891626E+02    5.951842E+02
   5.750000E-01    7.500000E-02    1.345904E+01   -6.589417E+01    5.217087E+02    5.258536E+02
   6.250000E-01    7.500000E-02    1.361722E+01   -5.309220E+01    4.683791E+02    4.713786E+02
   6.750000E-01    7.500000E-02    1.374758E+01   -4.500731E+01    4.244692E+02    4.268487E+02
   7.250000E-01    7.500000E-02    1.386183E+01   -4.090571E+01    3.859324E+02    3.880942E+02
   7.750000E-01    7.500000E-02    1.396990E+01   -3.993648E+01    3.490685E+02    3.513456E+02
   8.250000E-01    7.500000E-02    1.407887E+01   -4.005294E+01    3.104280E+02    3.130012E+02
   8.750000E-01    7.500000E-02    1.418757E+01   -3.485348E+01    2.672059E+02    2.694694E+02
   9.250000E-01    7.500000E-02    1.426829E+01   -3.664236E+00    2.187186E+02    2.187493E+02
   9.750000E-01    7.500000E-02    1.420749E+01    1.218705E+02    1.697683E+02    2.089826E+02
   1.025000E+00    7.500000E-02    1.360595E+01    5.791641E+02    1.343683E+02    5.945468E+02
   1.075000E+00    7.500000E-02    1.105986E+01    0.000000E+00    0.000000E+00    0.000000E+00
   2.500000E-02    1.250000E-01   -1.542434E+01   -5.000000E+03    0.000000E+00    5.000000E+03
   7.500000E-02    1.250000E-01   -7.051713E+00   -2.801751E+03    2.957433E+03    4.073846E+03
   1.250000E-01    1.250000E-01   -1.415580E+00   -1.908010E+03    2.398012E+03    3.064468E+03
   1.750000E-01    1.250000E-01    2.488338E+00   -1.336381E+03    1.911577E+03    2.332389E+03
   2.250000E-01    1.250000E-01    5.266326E+00   -9.589913E+02    1.525223E+03    1.801657E+03
   2.750000E-01    1.250000E-01    7.283294E+00   -7.003919E+02    1.227840E+03    1.413555E+03
   3.250000E-01    1.250000E-01    8.768286E+00   -5.178024E+02    1.001619E+03    1.127546E+03
   3.750000E-01    1.250000E-01    9.872306E+00   -3.861960E+02    8.302323E+02    9.156599E+02
   4.250000E-01    1.250000E-01    1.069927E+01   -2.901650E+02    7.004344E+02    7.581583E+02
   4.750000E-01    1.250000E-01    1.132313E+01   -2.197528E+02    6.019065E+02    6.407673E+02
   5.250000E-01    1.250000E-01    1.179803E+01   -1.682991E+02    5.266998E+02    5.529351E+02
   5.750000E-01    1.250000E-01    1.216463E+01   -1.312863E+02    4.686651E+02    4.867063E+02
   6.250000E-01    1.250000E-01    1.245446E+01   -1.056951E+02    4.229470E+02    4.359536E+02
   6.750000E-01    1.250000E-01    1.269310E+01   -8.961597E+01    3.855302E+02    3.958088E+02
   7.250000E-01    1.250000E-01    1.290254E+01   -8.195735E+01    3.527841E+02    3.621790E+02
   7.750000E-01    1.250000E-01    1.310289E+01   -8.207004E+01    3.208976E+02    3.312262E+02
   8.250000E-01    1.250000E-01    1.331289E+01   -8.898104E+01    2.849732E+02    2.985420E+02
   8.750000E-01    1.250000E-01    1.354779E+01   -9.968408E+01    2.371491E+02    2.572482E+02
   9.250000E-01    1.250000E-01    1.381131E+01   -1.059104E+02    1.618228E+02    1.934002E+02
   9.750000E-01    1.250000E-01    1.407735E+01   -9.168511E+01    2.146961E+01    9.416530E+01
   1.025000E+00    1.250000E-01    1.426974E+01   -5.585114E+01   -2.900184E+02    2.953473E+02
   1.075000E+00    1.250000E-01    1.435660E+01    0.000000E+00    0.000000E+00    0.000000E+00
   2.500000E-02    1.750000E-01   -2.150690E+01   -5.000000E+03    0.000000E+00    5.000000E+03
   7.500000E-02    1.750000E-01   -1.274381E+01   -3.291775E+03    1.880458E+03    3.791029E+03
   1.250000E-01    1.750000E-01   -6.267201E+00   -2.428883E+03    1.650749E+03    2.936740E+03
   1.750000E-01    1.750000E-01   -1.498981E+00   -1.790856E+03    1.387132E+03    2.265238E+03
   2.250000E-01    1.750000E-01    2.023802E+00   -1.326013E+03    1.147443E+03    1.753550E+03
   2.750000E-01    1.750000E-01    4.639968E+00   -9.868140E+02    9.484206E+02    1.368687E+03
   3.250000E-01    1.750000E-01    6.592385E+00   -7.378154E+02    7.900971E+02    1.081030E+03
   3.750000E-01    1.750000E-01    8.055780E+00   -5.540151E+02    6.668691E+02    8.669759E+02
   4.250000E-01    1.750000E-01    9.157270E+00   -4.179081E+02    5.720203E+02    7.084168E+02
   4.750000E-01    1.750000E-01    9.990539E+00   -3.171595E+02    4.993715E+02    5.915759E+02
   5.250000E-01    1.750000E-01    1.062560E+01   -2.430372E+02    4.437445E+02    5.059410E+02
   5.750000E-01    1.750000E-01    1.111571E+01   -1.894071E+02    4.009601E+02    4.434457E+02
   6.250000E-01    1.750000E-01    1.150249E+01   -1.521113E+02    3.676610E+02    3.978850E+02
   6.750000E-01    1.750000E-01    1.181993E+01   -1.286106E+02    3.410530E+02    3.644967E+02
   7.250000E-01    1.750000E-01    1.209791E+01   -1.178230E+02    3.185426E+02    3.396345E+02
   7.750000E-01    1.750000E-01    1.236541E+01   -1.201177E+02    2.971436E+02    3.205037E+02
   8.250000E-01    1.750000E-01    1.265401E+01   -1.374670E+02    2.723441E+02    3.050713E+02
   8.750000E-01    1.750000E-01    1.300183E+01   -1.739174E+02    2.357823E+02    2.929856E+02
   9.250000E-01    1.750000E-01    1.345918E+01   -2.372354E+02    1.704678E+02    2.921299E+02
   9.750000E-01    1.750000E-01    1.410014E+01   -3.449231E+02    4.163825E+01    3.474272E+02
   1.025000E+00    1.750000E-01    1.505604E+01   -5.432308E+02   -2.163904E+02    5.847431E+02
   1.075000E+00    1.750000E-01    1.661510E+01    0.000000E+00    0.000000E+00    0.000000E+00
   2.500000E-02    2.250000E-01   -2.437743E+01   -5.000000E+03    0.000000E+00    5.000000E+03
   7.500000E-02    2.250000E-01   -1.575754E+01   -3.554123E+03    9.066010E+02    3.667931E+03
   1.250000E-01    2.250000E-01   -9.057938E+00   -2.743161E+03    8.839659E+02    2.882070E+03
   1.750000E-01    2.250000E-01   -3.933570E+00   -2.090790E+03    8.001414E+02    2.238667E+03
   2.250000E-01    2.250000E-01   -4.591128E-02   -1.583638E+03    7.009411E+02    1.731828E+03
   2.750000E-01    2.250000E-01    2.892458E+00   -1.196271E+03    6.077548E+02    1.341801E+03
   3.250000E-01    2.250000E-01    5.110429E+00   -9.030579E+02    5.283287E+02    1.046253E+03
   3.750000E-01    2.250000E-01    6.784949E+00   -6.822180E+02    4.639090E+02    8.250048E+02
   4.250000E-01    2.250000E-01    8.051024E+00   -5.164963E+02    4.130914E+02    6.613720E+02
   4.750000E-01    2.250000E-01    9.011226E+00   -3.926909E+02    3.736727E+02    5.420677E+02
   5.250000E-01    2.250000E-01    9.743657E+00   -3.009280E+02    3.434589E+02    4.566417E+02
   5.750000E-01    2.250000E-01    1.030833E+01   -2.340115E+02    3.205741E+02    3.968994E+02
   6.250000E-01    2.250000E-01    1.075233E+01   -1.869510E+02    3.035430E+02    3.564955E+02
   6.750000E-01    2.250000E-01    1.111415E+01   -1.567114E+02    2.912612E+02    3.307439E+02
   7.250000E-01    2.250000E-01    1.142781E+01   -1.422324E+02    2.828684E+02    3.166143E+02
   7.750000E-01    2.250000E-01    1.172722E+01   -1.448218E+02    2.774424E+02    3.129659E+02
   8.250000E-01    2.250000E-01    1.205204E+01   -1.691246E+02    2.732987E+02    3.213959E+02
   8.750000E-01    2.250000E-01    1.245621E+01   -2.250562E+02    2.664991E+02    3.488152E+02
   9.250000E-01    2.250000E-01    1.302211E+01   -3.313812E+02    2.480505E+02    4.139354E+02
   9.750000E-01    2.250000E-01    1.388458E+01   -5.218690E+02    1.998158E+02    5.588145E+02
   1.025000E+00    2.250000E-01    1.527154E+01   -8.539337E+02    9.220896E+01    8.588977E+02
   1.075000E+00    2.250000E-01    1.756533E+01    0.000000E+00    0.000000E+00    0.000000E+00
   2.500000E-02    2.750000E-01   -2.490999E+01   -5.000000E+03    0.000000E+00    5.000000E+03
   7.500000E-02    2.750000E-01   -1.665157E+01   -3.678484E+03    1.040997E+01    3.678499E+03
   1.250000E-01    2.750000E-01   -1.007740E+01   -2.902519E+03    1.282444E+02    2.905351E+03
   1.750000E-01    2.750000E-01   -4.947867E+00   -2.251816E+03    1.895446E+02    2.259779E+03
   2.250000E-01    2.750000E-01   -9.974961E-01   -1.728114E+03    2.186625E+02    1.741893E+03
   2.750000E-01    2.750000E-01    2.020335E+00   -1.317525E+03    2.308085E+02    1.337589E+03
   3.250000E-01    2.750000E-01    4.315106E+00   -1.000888E+03    2.345934E+02    1.028013E+03
   3.750000E-01    2.750000E-01    6.056172E+00   -7.592762E+02    2.346126E+02    7.946970E+02
   4.250000E-01    2.750000E-01    7.376704E+00   -5.762799E+02    2.332350E+02    6.216888E+02
   4.750000E-01    2.750000E-01    8.379881E+00   -4.385809E+02    2.316784E+02    4.960121E+02
   5.250000E-01    2.750000E-01    9.145175E+00   -3.358033E+02    2.306250E+02    4.073717E+02
   5.750000E-01    2.750000E-01    9.733927E+00   -2.601361E+02    2.305809E+02    3.476181E+02
   6.250000E-01    2.750000E-01    1.019411E+01   -2.059808E+02    2.321168E+02    3.103326E+02
   6.750000E-01    2.750000E-01    1.056449E+01   -1.697644E+02    2.360697E+02    2.907728E+02
   7.250000E-01    2.750000E-01    1.087864E+01   -1.500500E+02    2.437527E+02    2.862348E+02
   7.750000E-01    2.750000E-01    1.116953E+01   -1.481426E+02    2.571790E+02    2.967949E+02
   8.250000E-01    2.750000E-01    1.147599E+01   -1.695306E+02    2.792373E+02    3.266712E+02
   8.750000E-01    2.750000E-01    1.185313E+01   -2.266724E+02    3.136275E+02    3.869659E+02
   9.250000E-01    2.750000E-01    1.239000E+01   -3.436635E+02    3.641571E+02    5.007145E+02
   9.750000E-01    2.750000E-01    1.323887E+01   -5.626120E+02    4.328813E+02    7.098721E+02
   1.025000E+00    2.750000E-01    1.465859E+01   -9.489620E+02    5.171203E+02    1.080714E+03
   1.075000E+00    2.750000E-01    1.706533E+01    0.000000E+00    0.000000E+00    0.000000E+00
   2.500000E-02    3.250000E-01   -2.358540E+01   -5.000000E+03    0.000000E+00    5.000000E+03
   7.500000E-02    3.250000E-01   -1.579951E+01   -3.698732E+03   -8.513044E+02    3.795436E+03
   1.250000E-01    3.250000E-01   -9.575052E+00   -2.930836E+03   -6.172156E+02    2.995122E+03
   1.750000E-01    3.250000E-01   -4.697863E+00   -2.282923E+03   -4.263160E+02    2.322388E+03
   2.250000E-01    3.250000E-01   -9.276148E-01   -1.758145E+03   -2.760772E+02    1.779689E+03
   2.750000E-01    3.250000E-01    1.961778E+00   -1.344315E+03   -1.605031E+02    1.353863E+03
   3.250000E-01    3.250000E-01    4.164488E+00   -1.023568E+03   -7.273193E+01    1.026149E+03
   3.750000E-01    3.250000E-01    5.838930E+00   -7.777631E+02   -6.444003E+00    7.777898E+02
   4.250000E-01    3.250000E-01    7.110560E+00   -5.908607E+02    4.364153E+01    5.924702E+02
   4.750000E-01    3.250000E-01    8.077039E+00   -4.496336E+02    8.175552E+01    4.570058E+02
   5.250000E-01    3.250000E-01    8.813717E+00   -3.436036E+02    1.112749E+02    3.611725E+02
   5.750000E-01    3.250000E-01    9.378568E+00   -2.647008E+02    1.349982E+02    2.971381E+02
   6.250000E-01    3.250000E-01    9.816372E+00   -2.068945E+02    1.554688E+02    2.587970E+02
   6.750000E-01    3.250000E-01    1.016226E+01   -1.659402E+02    1.753773E+02    2.414401E+02
   7.250000E-01    3.250000E-01    1.044493E+01   -1.393795E+02    1.981236E+02    2.422387E+02
   7.750000E-01    3.250000E-01    1.069021E+01   -1.270233E+02    2.286691E+02    2.615807E+02
   8.250000E-01    3.250000E-01    1.092608E+01   -1.323617E+02    2.748471E+02    3.050583E+02
   8.750000E-01    3.250000E-01    1.119158E+01   -1.657000E+02    3.492282E+02    3.865447E+02
   9.250000E-01    3.250000E-01    1.155373E+01   -2.501414E+02    4.711932E+02    5.334733E+02
   9.750000E-01    3.250000E-01    1.213909E+01   -4.310192E+02    6.674107E+02    7.944901E+02
   1.025000E+00    3.250000E-01    1.318638E+01   -7.856668E+02    9.657568E+02    1.244973E+03
   1.075000E+00    3.250000E-01    1.511510E+01    0.000000E+00    0.000000E+00    0.000000E+00
   2.500000E-02    3.750000E-01   -2.064928E+01   -5.000000E+03    0.000000E+00    5.000000E+03
   7.500000E-02    3.750000E-01   -1.342693E+01   -3.614751E+03   -1.724150E+03    4.004887E+03
   1.250000E-01    3.750000E-01   -7.739460E+00   -2.826292E+03   -1.362691E+03    3.137651E+03
   1.750000E-01    3.750000E-01   -3.333033E+00   -2.180559E+03   -1.036724E+03    2.414464E+03
   2.250000E-01    3.750000E-01    4.825088E-02   -1.669174E+03   -7.640018E+02    1.835712E+03
   2.750000E-01    3.750000E-01    2.628301E+00   -1.271859E+03   -5.456325E+02    1.383958E+03
   3.250000E-01    3.750000E-01    4.590606E+00   -9.666383E+02   -3.751597E+02    1.036887E+03
   3.750000E-01    3.750000E-01    6.080581E+00   -7.338209E+02   -2.439206E+02    7.732984E+02
   4.250000E-01    3.750000E-01    7.211395E+00   -5.570936E+02   -1.435289E+02    5.752859E+02
   4.750000E-01    3.750000E-01    8.070201E+00   -4.234396E+02   -6.675547E+01    4.286693E+02
   5.250000E-01    3.750000E-01    8.723679E+00   -3.226633E+02   -7.644506E+00    3.227538E+02
   5.750000E-01    3.750000E-01    9.222570E+00   -2.468298E+02    3.870390E+01    2.498459E+02
   6.250000E-01    3.750000E-01    9.605214E+00   -1.897327E+02    7.651416E+01    2.045798E+02
   6.750000E-01    3.750000E-01    9.900186E+00   -1.464296E+02    1.098666E+02    1.830637E+02
   7.250000E-01    3.750000E-01    1.012818E+01   -1.128897E+02    1.434986E+02    1.825813E+02
   7.750000E-01    3.750000E-01    1.030336E+01   -8.588435E+01    1.841530E+02    2.031956E+02
   8.250000E-01    3.750000E-01    1.043491E+01   -6.353975E+01    2.429913E+02    2.511615E+02
   8.750000E-01    3.750000E-01    1.053029E+01   -4.767461E+01    3.398712E+02    3.431987E+02
   9.250000E-01    3.750000E-01    1.060517E+01   -5.054090E+01    5.102232E+02    5.127203E+02
   9.750000E-01    3.750000E-01    1.071079E+01   -1.106699E+02    8.131333E+02    8.206300E+02
   1.025000E+00    3.750000E-01    1.100042E+01   -3.208260E+02    1.329778E+03    1.367932E+03
   1.075000E+00    3.750000E-01    1.185660E+01    0.000000E+00    0.000000E+00    0.000000E+00
   2.500000E-02    4.250000E-01   -1.616538E+01   -5.000000E+03    0.000000E+00    5.000000E+03
   7.500000E-02    4.250000E-01   -9.641836E+00   -3.391295E+03   -2.654672E+03    4.306759E+03
   1.250000E-01    4.250000E-01   -4.708300E+00   -2.559381E+03   -2.113594E+03    3.319294E+03
   1.750000E-01    4.250000E-01   -9.952769E-01   -1.926742E+03   -1.626364E+03    2.521387E+03
   2.250000E-01    4.250000E-01    1.800963E+00   -1.452100E+03   -1.222830E+03    1.898396E+03
   2.750000E-01    4.250000E-01    3.910466E+00   -1.096201E+03   -9.022804E+02    1.419777E+03
   3.250000E-01    4.250000E-01    5.504344E+00   -8.286844E+02   -6.531710E+02    1.055154E+03
   3.750000E-01    4.250000E-01    6.710075E+00   -6.271706E+02   -4.618022E+02    7.788480E+02
   4.250000E-01    4.250000E-01    7.623163E+00   -4.751913E+02   -3.155941E+02    5.704441E+02
   4.750000E-01    4.250000E-01    8.315451E+00   -3.604854E+02   -2.040235E+02    4.142165E+02
   5.250000E-01    4.250000E-01    8.841019E+00   -2.737669E+02   -1.186285E+02    2.983639E+02
   5.750000E-01    4.250000E-01    9.240340E+00   -2.078181E+02   -5.267582E+01    2.143900E+02
   6.250000E-01    4.250000E-01    9.543107E+00   -1.567435E+02   -7.085619E-01    1.567451E+02
   6.750000E-01    4.250000E-01    9.769878E+00   -1.152420E+02    4.200057E+01    1.226571E+02
   7.250000E-01    4.250000E-01    9.932438E+00   -7.774270E+01    8.021651E+01    1.117077E+02
   7.750000E-01    4.250000E-01    1.003252E+01   -3.724204E+01    1.200844E+02    1.257269E+02
   8.250000E-01    4.250000E-01    1.005826E+01    1.621084E+01    1.718867E+02    1.726495E+02
   8.750000E-01    4.250000E-01    9.977756E+00    9.671742E+01    2.561170E+02    2.737703E+02
   9.250000E-01    4.250000E-01    9.731508E+00    2.198441E+02    4.168779E+02    4.712946E+02
   9.750000E-01    4.250000E-01    9.235040E+00    3.831224E+02    7.491853E+02    8.414639E+02
   1.025000E+00    4.250000E-01    8.437175E+00    4.958540E+02    1.440005E+03    1.522986E+03
   1.075000E+00    4.250000E-01    7.559857E+00    0.000000E+00    0.000000E+00    0.000000E+00
   2.500000E-02    4.750000E-01   -9.996312E+00   -5.000000E+03    0.000000E+00    5.000000E+03
   7.500000E-02    4.750000E-01   -4.458446E+00   -2.931980E+03   -3.678757E+03    4.704228E+03
   1.250000E-01    4.750000E-01   -5.989393E-01   -2.065404E+03   -2.849115E+03    3.518999E+03
   1.750000E-01    4.750000E-01    2.161440E+00   -1.490853E+03   -2.161005E+03    2.625373E+03
   2.250000E-01    4.750000E-01    4.179434E+00   -1.096713E+03   -1.620140E+03    1.956433E+03
   2.750000E-01    4.750000E-01    5.676546E+00   -8.167630E+02   -1.203607E+03    1.454569E+03
   3.250000E-01    4.750000E-01    6.797265E+00   -6.128234E+02   -8.855805E+02    1.076943E+03
   3.750000E-01    4.750000E-01    7.640724E+00   -4.618619E+02   -6.436765E+02    7.922347E+02
   4.250000E-01    4.750000E-01    8.277591E+00   -3.490488E+02   -4.599266E+02    5.773799E+02
   4.750000E-01    4.750000E-01    8.759470E+00   -2.642203E+02   -3.203259E+02    4.152361E+02
   5.250000E-01    4.750000E-01    9.124451E+00   -2.000104E+02   -2.141093E+02    2.929965E+02
   5.750000E-01    4.750000E-01    9.400529E+00   -1.507450E+02   -1.330734E+02    2.010786E+02
   6.250000E-01    4.750000E-01    9.607608E+00   -1.116224E+02   -7.102240E+01    1.323017E+02
   6.750000E-01    4.750000E-01    9.758293E+00   -7.786499E+01   -2.333454E+01    8.128627E+01
   7.250000E-01    4.750000E-01    9.857175E+00   -4.348672E+01    1.340448E+01    4.550576E+01
   7.750000E-01    4.750000E-01    9.897673E+00    9.256406E-01    4.187591E+01    4.188614E+01
   8.250000E-01    4.750000E-01    9.854208E+00    7.258429E+01    6.519185E+01    9.756257E+01
   8.750000E-01    4.750000E-01    9.665031E+00    2.051108E+02    9.074929E+01    2.242897E+02
   9.250000E-01    4.750000E-01    9.196802E+00    4.634036E+02    1.437422E+02    4.851853E+02
   9.750000E-01    4.750000E-01    8.179763E+00    9.551135E+02    3.149361E+02    1.005697E+03
   1.025000E+00    4.750000E-01    6.135541E+00    1.741973E+03    9.309710E+02    1.975140E+03
   1.075000E+00    4.750000E-01    2.596517E+00    0.000000E+00    0.000000E+00    0.000000E+00
   2.500000E-02    5.250000E-01   -1.675743E+00   -5.000000E+03    0.000000E+00    5.000000E+03
   7.500000E-02    5.250000E-01    2.149051E+00   -2.000545E+03   -4.742370E+03    5.147063E+03
   1.250000E-01    5.250000E-01    4.423478E+00   -1.240487E+03   -3.476452E+03    3.691142E+03
   1.750000E-01    5.250000E-01    5.931022E+00   -8.430386E+02   -2.571048E+03    2.705735E+03
   2.250000E-01    5.250000E-01    6.993718E+00   -6.025882E+02   -1.909146E+03    2.001986E+03
   2.750000E-01    5.250000E-01    7.768181E+00   -4.424802E+02   -1.418093E+03    1.485522E+03
   3.250000E-01    5.250000E-01    8.342743E+00   -3.296269E+02   -1.050497E+03    1.100999E+03
   3.750000E-01    5.250000E-01    8.773141E+00   -2.474905E+02   -7.738427E+02    8.124556E+02
   4.250000E-01    5.250000E-01    9.097287E+00   -1.866307E+02   -5.649501E+02    5.949787E+02
   4.750000E-01    5.250000E-01    9.342137E+00   -1.410335E+02   -4.068939E+02    4.306427E+02
   5.250000E-01    5.250000E-01    9.527267E+00   -1.065081E+02   -2.871801E+02    3.062946E+02
   5.750000E-01    5.250000E-01    9.666857E+00   -7.986013E+01   -1.966266E+02    2.122255E+02
   6.250000E-01    5.250000E-01    9.770743E+00   -5.832218E+01   -1.287046E+02    1.413024E+02
   6.750000E-01    5.250000E-01    9.844669E+00   -3.894411E+01   -7.928001E+01    8.832873E+01
   7.250000E-01    5.250000E-01    9.889475E+00   -1.759274E+01   -4.684656E+01    5.004103E+01
   7.750000E-01    5.250000E-01    9.898305E+00    1.317492E+01   -3.356321E+01    3.605645E+01
   8.250000E-01    5.250000E-01    9.849308E+00    6.934306E+01   -4.781967E+01    8.423290E+01
   8.750000E-01    5.250000E-01    9.686893E+00    1.897519E+02   -1.098698E+02    2.192650E+02
   9.250000E-01    5.250000E-01    9.270796E+00    4.792946E+02   -2.634490E+02    5.469265E+02
   9.750000E-01    5.250000E-01    8.225629E+00    1.252141E+03   -5.970377E+02    1.387195E+03
   1.025000E+00    5.250000E-01    5.453294E+00    3.549664E+03   -1.267543E+03    3.769188E+03
   1.075000E+00    5.250000E-01   -2.596517E+00    0.000000E+00    0.000000E+00    0.000000E+00
   2.500000E-02    5.750000E-01    1.000000E+01    0.000000E+00    0.000000E+00    0.000000E+00
   7.500000E-02    5.750000E-01    1.000000E+01    0.000000E+00    0.000000E+00    0.000000E+00
   1.250000E-01    5.750000E-01    1.000000E+01    0.000000E+00    0.000000E+00    0.000000E+00
   1.750000E-01    5.750000E-01    1.000000E+01    0.000000E+00    0.000000E+00    0.000000E+00
   2.250000E-01    5.750000E-01    1.000000E+01    0.000000E+00    0.000000E+00    0.000000E+00
   2.750000E-01    5.750000E-01    1.000000E+01    0.000000E+00    0.000000E+00    0.000000E+00
   3.250000E-01    5.750000E-01    1.000000E+01    0.000000E+00    0.000000E+00    0.000000E+00
   3.750000E-01    5.750000E-01    1.000000E+01    0.000000E+00    0.000000E+00    0.000000E+00
   4.250000E-01    5.750000E-01    1.000000E+01    0.000000E+00    0.000000E+00    0.000000E+00
   4.750000E-01    5.750000E-01    1.000000E+01    0.000000E+00    0.000000E+00    0.000000E+00
   5.250000E-01    5.750000E-01    1.000000E+01    0.000000E+00    0.000000E+00    0.000000E+00
   5.750000E-01    5.750000E-01    1.000000E+01    0.000000E+00    0.000000E+00    0.000000E+00
   6.250000E-01    5.750000E-01    1.000000E+01    0.000000E+00    0.000000E+00    0.000000E+00
   6.750000E-01    5.750000E-01    1.000000E+01    0.000000E+00    0.000000E+00    0.000000E+00
   7.250000E-01    5.750000E-01    1.000000E+01    0.000000E+00    0.000000E+00    0.000000E+00
   7.750000E-01    5.750000E-01    1.000000E+01    0.000000E+00    0.000000E+00    0.000000E+00
   8.250000E-01    5.750000E-01    1.000000E+01    0.000000E+00    0.000000E+00    0.000000E+00
   8.750000E-01    5.750000E-01    1.000000E+01    0.000000E+00    0.000000E+00    0.000000E+00
   9.250000E-01    5.750000E-01    1.000000E+01    0.000000E+00    0.000000E+00    0.000000E+00
   9.750000E-01    5.750000E-01    1.000000E+01    0.000000E+00    0.000000E+00    0.000000E+00
   1.025000E+00    5.750000E-01    1.000000E+01    0.000000E+00    0.000000E+00    0.000000E+00
   1.075000E+00    5.750000E-01    1.000000E+01    0.000000E+00    0.000000E+00    0.000000E+00
