TITLE = "2d Diffusion Data"
VARIABLES = "X", "Y", "T", "QX", "QY", "QMAG"
ZONE T="Zone 1", I=42, J=22, DATAPACKING=POINT, ZONETYPE=ORDERED
   1.250000E-02    1.250000E-02    1.500000E+01   -5.000000E+03    0.000000E+00    5.000000E+03
   3.750000E-02    1.250000E-02    1.500000E+01    0.000000E+00    0.000000E+00    0.000000E+00
   6.250000E-02    1.250000E-02    1.500000E+01    0.000000E+00    0.000000E+00    0.000000E+00
   8.750000E-02    1.250000E-02    1.500000E+01    0.000000E+00    0.000000E+00    0.000000E+00
   1.125000E-01    1.250000E-02    1.500000E+01    0.000000E+00    0.000000E+00    0.000000E+00
   1.375000E-01    1.250000E-02    1.500000E+01    0.000000E+00    0.000000E+00    0.000000E+00
   1.625000E-01    1.250000E-02    1.500000E+01    0.000000E+00    0.000000E+00    0.000000E+00
   1.875000E-01    1.250000E-02    1.500000E+01    0.000000E+00    0.000000E+00    0.000000E+00
   2.125000E-01    1.250000E-02    1.500000E+01    0.000000E+00    0.000000E+00    0.000000E+00
   2.375000E-01    1.250000E-02    1.500000E+01    0.000000E+00    0.000000E+00    0.000000E+00
   2.625000E-01    1.250000E-02    1.500000E+01    0.000000E+00    0.000000E+00    0.000000E+00
   2.875000E-01    1.250000E-02    1.500000E+01    0.000000E+00    0.000000E+00    0.000000E+00
   3.125000E-01    1.250000E-02    1.500000E+01    0.000000E+00    0.000000E+00    0.000000E+00
   3.375000E-01    1.250000E-02    1.500000E+01    0.000000E+00    0.000000E+00    0.000000E+00
   3.625000E-01    1.250000E-02    1.500000E+01    0.000000E+00    0.000000E+00    0.000000E+00
   3.875000E-01    1.250000E-02    1.500000E+01    0.000000E+00    0.000000E+00    0.000000E+00
   4.125000E-01    1.250000E-02    1.500000E+01    0.000000E+00    0.000000E+00    0.000000E+00
   4.375000E-01    1.250000E-02    1.500000E+01    0.000000E+00    0.000000E+00    0.000000E+00
   4.625000E-01    1.250000E-02    1.500000E+01    0.000000E+00    0.000000E+00    0.000000E+00
   4.875000E-01    1.250000E-02    1.500000E+01    0.000000E+00    0.000000E+00    0.000000E+00
   5.125000E-01    1.250000E-02    1.500000E+01    0.000000E+00    0.000000E+00    0.000000E+00
   5.375000E-01    1.250000E-02    1.500000E+01    0.000000E+00    0.000000E+00    0.000000E+00
   5.625000E-01    1.250000E-02    1.500000E+01    0.000000E+00    0.000000E+00    0.000000E+00
   5.875000E-01    1.250000E-02    1.500000E+01    0.000000E+00    0.000000E+00    0.000000E+00
   6.125000E-01    1.250000E-02    1.500000E+01    0.000000E+00    0.000000E+00    0.000000E+00
   6.375000E-01    1.250000E-02    1.500000E+01    0.000000E+00    0.000000E+00    0.000000E+00
   6.625000E-01    1.250000E-02    1.500000E+01    0.000000E+00    0.000000E+00    0.000000E+00
   6.875000E-01    1.250000E-02    1.500000E+01    0.000000E+00    0.000000E+00    0.000000E+00
   7.125000E-01    1.250000E-02    1.500000E+01    0.000000E+00    0.000000E+00    0.000000E+00
   7.375000E-01    1.250000E-02    1.500000E+01    0.000000E+00    0.000000E+00    0.000000E+00
   7.625000E-01    1.250000E-02    1.500000E+01    0.000000E+00    0.000000E+00    0.000000E+00
   7.875000E-01    1.250000E-02    1.500000E+01    0.000000E+00    0.000000E+00    0.000000E+00
   8.125000E-01    1.250000E-02    1.500000E+01    0.000000E+00    0.000000E+00    0.000000E+00
   8.375000E-01    1.250000E-02    1.500000E+01    0.000000E+00    0.000000E+00    0.000000E+00
   8.625000E-01    1.250000E-02    1.500000E+01    0.000000E+00    0.000000E+00    0.000000E+00
   8.875000E-01    1.250000E-02    1.500000E+01    0.000000E+00    0.000000E+00    0.000000E+00
   9.125000E-01    1.250000E-02    1.500000E+01    0.000000E+00    0.000000E+00    0.000000E+00
   9.375000E-01    1.250000E-02    1.500000E+01    0.000000E+00    0.000000E+00    0.000000E+00
   9.625000E-01    1.250000E-02    1.500000E+01    0.000000E+00    0.000000E+00    0.000000E+00
   9.875000E-01    1.250000E-02    1.500000E+01    0.000000E+00    0.000000E+00    0.000000E+00
   1.012500E+00    1.250000E-02    1.500000E+01    0.000000E+00    0.000000E+00    0.000000E+00
   1.037500E+00    1.250000E-02    6.051886E+00    0.000000E+00    0.000000E+00    0.000000E+00
   1.250000E-02    3.750000E-02    1.210497E+00   -5.000000E+03    0.000000E+00    5.000000E+03
   3.750000E-02    3.750000E-02    4.765127E+00   -1.940334E+03    6.358470E+03    6.647935E+03
   6.250000E-02    3.750000E-02    6.851004E+00   -1.196812E+03    5.216915E+03    5.352435E+03
   8.750000E-02    3.750000E-02    8.244233E+00   -8.274193E+02    4.384872E+03    4.462255E+03
   1.125000E-01    3.750000E-02    9.256292E+00   -6.149046E+02    3.753000E+03    3.803040E+03
   1.375000E-01    3.750000E-02    1.003175E+01   -4.783443E+02    3.257241E+03    3.292177E+03
   1.625000E-01    3.750000E-02    1.064683E+01   -3.833584E+02    2.858683E+03    2.884274E+03
   1.875000E-01    3.750000E-02    1.114616E+01   -3.134788E+02    2.532485E+03    2.551813E+03
   2.125000E-01    3.750000E-02    1.155810E+01   -2.599705E+02    2.261974E+03    2.276864E+03
   2.375000E-01    3.750000E-02    1.190189E+01   -2.177960E+02    2.035438E+03    2.047057E+03
   2.625000E-01    3.750000E-02    1.219123E+01   -1.838462E+02    1.844319E+03    1.853460E+03
   2.875000E-01    3.750000E-02    1.243632E+01   -1.560913E+02    1.682156E+03    1.689383E+03
   3.125000E-01    3.750000E-02    1.264499E+01   -1.331435E+02    1.543929E+03    1.549660E+03
   3.375000E-01    3.750000E-02    1.282337E+01   -1.140155E+02    1.425654E+03    1.430206E+03
   3.625000E-01    3.750000E-02    1.297643E+01   -9.798190E+01    1.324105E+03    1.327725E+03
   3.875000E-01    3.750000E-02    1.310820E+01   -8.449454E+01    1.236632E+03    1.239516E+03
   4.125000E-01    3.750000E-02    1.322205E+01   -7.313008E+01    1.161031E+03    1.163332E+03
   4.375000E-01    3.750000E-02    1.332079E+01   -6.355569E+01    1.095446E+03    1.097288E+03
   4.625000E-01    3.750000E-02    1.340680E+01   -5.550631E+01    1.038299E+03    1.039782E+03
   4.875000E-01    3.750000E-02    1.348214E+01   -4.876897E+01    9.882384E+02    9.894410E+02
   5.125000E-01    3.750000E-02    1.354857E+01   -4.317181E+01    9.440922E+02    9.450788E+02
   5.375000E-01    3.750000E-02    1.360764E+01   -3.857603E+01    9.048358E+02    9.056577E+02
   5.625000E-01    3.750000E-02    1.366071E+01   -3.486986E+01    8.695630E+02    8.702618E+02
   5.875000E-01    3.750000E-02    1.370901E+01   -3.196370E+01    8.374628E+02    8.380726E+02
   6.125000E-01    3.750000E-02    1.375363E+01   -2.978579E+01    8.078002E+02    8.083491E+02
   6.375000E-01    3.750000E-02    1.379560E+01   -2.827776E+01    7.798998E+02    7.804123E+02
   6.625000E-01    3.750000E-02    1.383583E+01   -2.738933E+01    7.531355E+02    7.536334E+02
   6.875000E-01    3.750000E-02    1.387522E+01   -2.707060E+01    7.269229E+02    7.274268E+02
   7.125000E-01    3.750000E-02    1.391453E+01   -2.726023E+01    7.007216E+02    7.012516E+02
   7.375000E-01    3.750000E-02    1.395446E+01   -2.786555E+01    6.740478E+02    6.746235E+02
   7.625000E-01    3.750000E-02    1.399553E+01   -2.872802E+01    6.465084E+02    6.471464E+02
   7.875000E-01    3.750000E-02    1.403797E+01   -2.956098E+01    6.178687E+02    6.185755E+02
   8.125000E-01    3.750000E-02    1.408147E+01   -2.983281E+01    5.881817E+02    5.889378E+02
   8.375000E-01    3.750000E-02    1.412470E+01   -2.853687E+01    5.580270E+02    5.587562E+02
   8.625000E-01    3.750000E-02    1.416442E+01   -2.371053E+01    5.289550E+02    5.294861E+02
   8.875000E-01    3.750000E-02    1.419362E+01   -1.135144E+01    5.043222E+02    5.044499E+02
   9.125000E-01    3.750000E-02    1.419742E+01    1.724734E+01    4.908975E+02    4.912004E+02
   9.375000E-01    3.750000E-02    1.414348E+01    8.272296E+01    5.019941E+02    5.087644E+02
   9.625000E-01    3.750000E-02    1.395695E+01    2.393330E+02    5.635201E+02    6.122378E+02
   9.875000E-01    3.750000E-02    1.344775E+01    6.468034E+02    7.246224E+02    9.713044E+02
   1.012500E+00    3.750000E-02    1.207670E+01    1.830447E+03    1.069193E+03    2.119838E+03
   1.037500E+00    3.750000E-02    8.126680E+00    0.000000E+00    0.000000E+00    0.000000E+00
   1.250000E-02    6.250000E-02   -8.238553E+00   -5.000000E+03    0.000000E+00    5.000000E+03
   3.750000E-02    6.250000E-02   -3.483925E+00   -2.906317E+03    5.275078E+03    6.022717E+03
   6.250000E-02    6.250000E-02   -1.654512E-01   -2.065394E+03    4.595811E+03    5.038584E+03
   8.750000E-02    6.250000E-02    2.253280E+00   -1.532005E+03    3.985440E+03    4.269750E+03
   1.125000E-01    6.250000E-02    4.090118E+00   -1.180079E+03    3.470088E+03    3.665255E+03
   1.375000E-01    6.250000E-02    5.531276E+00   -9.359123E+02    3.041037E+03    3.181798E+03
   1.625000E-01    6.250000E-02    6.689874E+00   -7.584652E+02    2.683645E+03    2.788767E+03
   1.875000E-01    6.250000E-02    7.638124E+00   -6.244634E+02    2.384520E+03    2.464932E+03
   2.125000E-01    6.250000E-02    8.424495E+00   -5.201662E+02    2.132783E+03    2.195299E+03
   2.375000E-01    6.250000E-02    9.083030E+00   -4.370803E+02    1.919849E+03    1.968974E+03
   2.625000E-01    6.250000E-02    9.638607E+00   -3.697132E+02    1.738945E+03    1.777813E+03
   2.875000E-01    6.250000E-02    1.011001E+01   -3.143614E+02    1.584680E+03    1.615560E+03
   3.125000E-01    6.250000E-02    1.051183E+01   -2.684322E+02    1.452708E+03    1.477301E+03
   3.375000E-01    6.250000E-02    1.085566E+01   -2.300489E+02    1.339483E+03    1.359094E+03
   3.625000E-01    6.250000E-02    1.115086E+01   -1.978134E+02    1.242076E+03    1.257729E+03
   3.875000E-01    6.250000E-02    1.140514E+01   -1.706586E+02    1.158047E+03    1.170554E+03
   4.125000E-01    6.250000E-02    1.162491E+01   -1.477535E+02    1.085341E+03    1.095352E+03
   4.375000E-01    6.250000E-02    1.181556E+01   -1.284406E+02    1.022214E+03    1.030251E+03
   4.625000E-01    6.250000E-02    1.198169E+01   -1.121938E+02    9.671750E+02    9.736606E+02
   4.875000E-01    6.250000E-02    1.212721E+01   -9.858862E+01    9.189389E+02    9.242124E+02
   5.125000E-01    6.250000E-02    1.225555E+01   -8.728183E+01    8.763882E+02    8.807237E+02
   5.375000E-01    6.250000E-02    1.236966E+01   -7.799568E+01    8.385421E+02    8.421616E+02
   5.625000E-01    6.250000E-02    1.247220E+01   -7.050653E+01    8.045312E+02    8.076147E+02
   5.875000E-01    6.250000E-02    1.256551E+01   -6.463551E+01    7.735743E+02    7.762699E+02
   6.125000E-01    6.250000E-02    1.265174E+01   -6.024035E+01    7.449606E+02    7.473922E+02
   6.375000E-01    6.250000E-02    1.273285E+01   -5.720721E+01    7.180323E+02    7.203076E+02
   6.625000E-01    6.250000E-02    1.281065E+01   -5.544097E+01    6.921721E+02    6.943889E+02
   6.875000E-01    6.250000E-02    1.288685E+01   -5.485177E+01    6.667926E+02    6.690449E+02
   7.125000E-01    6.250000E-02    1.296302E+01   -5.533443E+01    6.413297E+02    6.437124E+02
   7.375000E-01    6.250000E-02    1.304056E+01   -5.673470E+01    6.152432E+02    6.178535E+02
   7.625000E-01    6.250000E-02    1.312062E+01   -5.879203E+01    5.880251E+02    5.909569E+02
   7.875000E-01    6.250000E-02    1.320387E+01   -6.103954E+01    5.592226E+02    5.625440E+02
   8.125000E-01    6.250000E-02    1.329017E+01   -6.262504E+01    5.284791E+02    5.321767E+02
   8.375000E-01    6.250000E-02    1.337783E+01   -6.198151E+01    4.955981E+02    4.994589E+02
   8.625000E-01    6.250000E-02    1.346234E+01   -5.620276E+01    4.606172E+02    4.640334E+02
   8.875000E-01    6.250000E-02    1.353395E+01   -3.982761E+01    4.238180E+02    4.256853E+02
   9.125000E-01    6.250000E-02    1.357297E+01   -2.436320E+00    3.853767E+02    3.853844E+02
   9.375000E-01    6.250000E-02    1.354071E+01    7.600039E+01    3.435839E+02    3.518891E+02
   9.625000E-01    6.250000E-02    1.336186E+01    2.329831E+02    2.878575E+02    3.703283E+02
   9.875000E-01    6.250000E-02    1.289354E+01    5.291931E+02    1.731799E+02    5.568093E+02
   1.012500E+00    6.250000E-02    1.189188E+01    1.000184E+03   -1.720905E+02    1.014881E+03
   1.037500E+00    6.250000E-02    1.011525E+01    0.000000E+00    0.000000E+00    0.000000E+00
   1.250000E-02    8.750000E-02   -1.505304E+01   -5.000000E+03    0.000000E+00    5.000000E+03
   3.750000E-02    8.750000E-02   -9.887867E+00   -3.435852E+03    4.247043E+03    5.462824E+03
   6.250000E-02    8.750000E-02   -5.915137E+00   -2.655099E+03    3.878842E+03    4.700528E+03
   8.750000E-02    8.750000E-02   -2.826433E+00   -2.080143E+03    3.473477E+03    4.048709E+03
   1.125000E-01    8.750000E-02   -3.828410E-01   -1.658481E+03    3.088844E+03    3.505926E+03
   1.375000E-01    8.750000E-02    1.584420E+00   -1.344237E+03    2.744500E+03    3.056019E+03
   1.625000E-01    8.750000E-02    3.192259E+00   -1.104716E+03    2.443832E+03    2.681923E+03
   1.875000E-01    8.750000E-02    4.522494E+00   -9.179846E+02    2.184130E+03    2.369203E+03
   2.125000E-01    8.750000E-02    5.633707E+00   -7.694768E+02    1.960798E+03    2.106377E+03
   2.375000E-01    8.750000E-02    6.568975E+00   -6.493978E+02    1.769007E+03    1.884437E+03
   2.625000E-01    8.750000E-02    7.360829E+00   -5.510130E+02    1.604294E+03    1.696283E+03
   2.875000E-01    8.750000E-02    8.034435E+00   -4.695698E+02    1.462729E+03    1.536253E+03
   3.125000E-01    8.750000E-02    8.609685E+00   -4.016240E+02    1.340922E+03    1.399776E+03
   3.375000E-01    8.750000E-02    9.102584E+00   -3.446151E+02    1.235968E+03    1.283112E+03
   3.625000E-01    8.750000E-02    9.526214E+00   -2.965961E+02    1.145388E+03    1.183166E+03
   3.875000E-01    8.750000E-02    9.891403E+00   -2.560560E+02    1.067059E+03    1.097351E+03
   4.125000E-01    8.750000E-02    1.020721E+01   -2.218032E+02    9.991613E+02    1.023484E+03
   4.375000E-01    8.750000E-02    1.048131E+01   -1.928854E+02    9.401288E+02    9.597119E+02
   4.625000E-01    8.750000E-02    1.072021E+01   -1.685345E+02    8.886077E+02    9.044488E+02
   4.875000E-01    8.750000E-02    1.092954E+01   -1.481274E+02    8.434215E+02    8.563303E+02
   5.125000E-01    8.750000E-02    1.111416E+01   -1.311578E+02    8.035410E+02    8.141748E+02
   5.375000E-01    8.750000E-02    1.127836E+01   -1.172152E+02    7.680584E+02    7.769512E+02
   5.625000E-01    8.750000E-02    1.142591E+01   -1.059688E+02    7.361649E+02    7.437527E+02
   5.875000E-01    8.750000E-02    1.156019E+01   -9.715524E+01    7.071303E+02    7.137733E+02
   6.125000E-01    8.750000E-02    1.168430E+01   -9.056715E+01    6.802852E+02    6.862874E+02
   6.375000E-01    8.750000E-02    1.180106E+01   -8.604283E+01    6.550042E+02    6.606314E+02
   6.625000E-01    8.750000E-02    1.191313E+01   -8.345422E+01    6.306900E+02    6.361874E+02
   6.875000E-01    8.750000E-02    1.202301E+01   -8.269092E+01    6.067576E+02    6.123664E+02
   7.125000E-01    8.750000E-02    1.213306E+01   -8.363655E+01    5.826191E+02    5.885916E+02
   7.375000E-01    8.750000E-02    1.224545E+01   -8.613135E+01    5.576657E+02    5.642780E+02
   7.625000E-01    8.750000E-02    1.236213E+01   -8.991075E+01    5.312465E+02    5.388013E+02
   7.875000E-01    8.750000E-02    1.248458E+01   -9.450335E+01    5.026382E+02    5.114450E+02
   8.125000E-01    8.750000E-02    1.261347E+01   -9.906017E+01    4.709909E+02    4.812955E+02
   8.375000E-01    8.750000E-02    1.274803E+01   -1.020694E+02    4.352214E+02    4.470300E+02
   8.625000E-01    8.750000E-02    1.288493E+01   -1.008865E+02    3.937753E+02    4.064937E+02
   8.875000E-01    8.750000E-02    1.301635E+01   -9.099194E+01    3.440773E+02    3.559055E+02
   9.125000E-01    8.750000E-02    1.312693E+01   -6.494838E+01    2.812324E+02    2.886347E+02
   9.375000E-01    8.750000E-02    1.318908E+01   -1.143524E+01    1.949726E+02    1.953077E+02
   9.625000E-01    8.750000E-02    1.315734E+01    8.361911E+01    6.271373E+01    1.045235E+02
   9.875000E-01    8.750000E-02    1.296669E+01    2.265810E+02   -1.647194E+02    2.801276E+02
   1.012500E+00    8.750000E-02    1.255473E+01    3.775847E+02   -5.838351E+02    6.952939E+02
   1.037500E+00    8.750000E-02    1.196248E+01    0.000000E+00    0.000000E+00    0.000000E+00
   1.250000E-02    1.125000E-01   -2.005262E+01   -5.000000E+03    0.000000E+00    5.000000E+03
   3.750000E-02    1.125000E-01   -1.477925E+01   -3.751869E+03    3.353949E+03    5.032444E+03
   6.250000E-02    1.125000E-01   -1.048152E+01   -3.055467E+03    3.171369E+03    4.403801E+03
   8.750000E-02    1.125000E-01   -6.984692E+00   -2.491798E+03    2.920752E+03    3.839251E+03
   1.125000E-01    1.125000E-01   -4.124894E+00   -2.044973E+03    2.652527E+03    3.349300E+03
   1.375000E-01    1.125000E-01   -1.767925E+00   -1.691565E+03    2.393101E+03    2.930584E+03
   1.625000E-01    1.125000E-01    1.903217E-01   -1.410100E+03    2.154385E+03    2.574831E+03
   1.875000E-01    1.125000E-01    1.829267E+00   -1.183560E+03    1.940514E+03    2.272973E+03
   2.125000E-01    1.125000E-01    3.209606E+00   -9.991911E+02    1.751750E+03    2.016683E+03
   2.375000E-01    1.125000E-01    4.378224E+00   -8.476062E+02    1.586579E+03    1.798797E+03
   2.625000E-01    1.125000E-01    5.371867E+00   -7.218877E+02    1.442773E+03    1.613294E+03
   2.875000E-01    1.125000E-01    6.219774E+00   -6.168846E+02    1.317923E+03    1.455152E+03
   3.125000E-01    1.125000E-01    6.945552E+00   -5.287034E+02    1.209686E+03    1.320177E+03
   3.375000E-01    1.125000E-01    7.568507E+00   -4.543519E+02    1.115897E+03    1.204850E+03
   3.625000E-01    1.125000E-01    8.104613E+00   -3.914936E+02    1.034608E+03    1.106201E+03
   3.875000E-01    1.125000E-01    8.567216E+00   -3.382773E+02    9.640849E+02    1.021710E+03
   4.125000E-01    1.125000E-01    8.967565E+00   -2.932185E+02    9.028044E+02    9.492275E+02
   4.375000E-01    1.125000E-01    9.315222E+00   -2.551155E+02    8.494268E+02    8.869103E+02
   4.625000E-01    1.125000E-01    9.618370E+00   -2.229890E+02    8.027778E+02    8.331724E+02
   4.875000E-01    1.125000E-01    9.884072E+00   -1.960386E+02    7.618250E+02    7.866438E+02
   5.125000E-01    1.125000E-01    1.011847E+01   -1.736103E+02    7.256578E+02    7.461366E+02
   5.375000E-01    1.125000E-01    1.032695E+01   -1.551718E+02    6.934675E+02    7.106162E+02
   5.625000E-01    1.125000E-01    1.051432E+01   -1.402946E+02    6.645289E+02    6.791769E+02
   5.875000E-01    1.125000E-01    1.068485E+01   -1.286384E+02    6.381837E+02    6.510194E+02
   6.125000E-01    1.125000E-01    1.084247E+01   -1.199392E+02    6.138229E+02    6.254310E+02
   6.375000E-01    1.125000E-01    1.099082E+01   -1.139980E+02    5.908709E+02    6.017673E+02
   6.625000E-01    1.125000E-01    1.113329E+01   -1.106687E+02    5.687669E+02    5.794337E+02
   6.875000E-01    1.125000E-01    1.127313E+01   -1.098439E+02    5.469454E+02    5.578664E+02
   7.125000E-01    1.125000E-01    1.141350E+01   -1.114340E+02    5.248105E+02    5.365106E+02
   7.375000E-01    1.125000E-01    1.155741E+01   -1.153364E+02    5.017040E+02    5.147907E+02
   7.625000E-01    1.125000E-01    1.170773E+01   -1.213871E+02    4.768575E+02    4.920650E+02
   7.875000E-01    1.125000E-01    1.186707E+01   -1.292850E+02    4.493197E+02    4.675498E+02
   8.125000E-01    1.125000E-01    1.203753E+01   -1.384773E+02    4.178361E+02    4.401851E+02
   8.375000E-01    1.125000E-01    1.222032E+01   -1.479923E+02    3.806405E+02    4.083979E+02
   8.625000E-01    1.125000E-01    1.241507E+01   -1.562211E+02    3.350797E+02    3.697072E+02
   8.875000E-01    1.125000E-01    1.261885E+01   -1.606998E+02    2.769239E+02    3.201738E+02
   9.125000E-01    1.125000E-01    1.282501E+01   -1.581024E+02    1.991069E+02    2.542438E+02
   9.375000E-01    1.125000E-01    1.302217E+01   -1.450614E+02    8.952408E+01    1.704622E+02
   9.625000E-01    1.125000E-01    1.319507E+01   -1.213054E+02   -7.234726E+01    1.412414E+02
   9.875000E-01    1.125000E-01    1.333162E+01   -9.782916E+01   -3.188281E+02    3.334995E+02
   1.012500E+00    1.125000E-01    1.344463E+01   -1.117583E+02   -6.904317E+02    6.994182E+02
   1.037500E+00    1.125000E-01    1.361672E+01    0.000000E+00    0.000000E+00    0.000000E+00
   1.250000E-02    1.375000E-01   -2.369510E+01   -5.000000E+03    0.000000E+00    5.000000E+03
   3.750000E-02    1.375000E-01   -1.844386E+01   -3.953413E+03    2.578165E+03    4.719790E+03
   6.250000E-02    1.375000E-01   -1.400536E+01   -3.331943E+03    2.506442E+03    4.169424E+03
   8.750000E-02    1.375000E-01   -1.027733E+01   -2.797196E+03    2.365532E+03    3.663338E+03
   1.125000E-01    1.375000E-01   -7.149491E+00   -2.348816E+03    2.191597E+03    3.212481E+03
   1.375000E-01    1.375000E-01   -4.520429E+00   -1.977115E+03    2.008462E+03    2.818315E+03
   1.625000E-01    1.375000E-01   -2.303622E+00   -1.669795E+03    1.830054E+03    2.477360E+03
   1.875000E-01    1.375000E-01   -4.277957E-01   -1.415180E+03    1.663648E+03    2.184138E+03
   2.125000E-01    1.375000E-01    1.164956E+00   -1.203345E+03    1.512438E+03    1.932746E+03
   2.375000E-01    1.375000E-01    2.521579E+00   -1.026254E+03    1.377267E+03    1.717574E+03
   2.625000E-01    1.375000E-01    3.680285E+00   -8.775297E+02    1.257696E+03    1.533577E+03
   2.875000E-01    1.375000E-01    4.672387E+00   -7.521344E+02    1.152646E+03    1.376335E+03
   3.125000E-01    1.375000E-01    5.523751E+00   -6.460760E+02    1.060753E+03    1.242019E+03
   3.375000E-01    1.375000E-01    6.255907E+00   -5.561685E+02    9.805844E+02    1.127328E+03
   3.625000E-01    1.375000E-01    6.886909E+00   -4.798472E+02    9.107379E+02    1.029416E+03
   3.875000E-01    1.375000E-01    7.432003E+00   -4.150309E+02    8.499030E+02    9.458254E+02
   4.125000E-01    1.375000E-01    7.904142E+00   -3.600181E+02    7.968811E+02    8.744327E+02
   4.375000E-01    1.375000E-01    8.314400E+00   -3.134104E+02    7.505925E+02    8.133974E+02
   4.625000E-01    1.375000E-01    8.672305E+00   -2.740553E+02    7.100716E+02    7.611228E+02
   4.875000E-01    1.375000E-01    8.986104E+00   -2.410017E+02    6.744578E+02    7.162228E+02
   5.125000E-01    1.375000E-01    9.262995E+00   -2.134678E+02    6.429837E+02    6.774928E+02
   5.375000E-01    1.375000E-01    9.509310E+00   -1.908149E+02    6.149624E+02    6.438859E+02
   5.625000E-01    1.375000E-01    9.730679E+00   -1.725277E+02    5.897739E+02    6.144909E+02
   5.875000E-01    1.375000E-01    9.932172E+00   -1.581994E+02    5.668511E+02    5.885128E+02
   6.125000E-01    1.375000E-01    1.011842E+01   -1.475189E+02    5.456656E+02    5.652547E+02
   6.375000E-01    1.375000E-01    1.029374E+01   -1.402606E+02    5.257116E+02    5.441009E+02
   6.625000E-01    1.375000E-01    1.046220E+01   -1.362751E+02    5.064873E+02    5.245000E+02
   6.875000E-01    1.375000E-01    1.062775E+01   -1.354790E+02    4.874721E+02    5.059483E+02
   7.125000E-01    1.375000E-01    1.079425E+01   -1.378425E+02    4.680962E+02    4.879699E+02
   7.375000E-01    1.375000E-01    1.096559E+01   -1.433719E+02    4.476978E+02    4.700944E+02
   7.625000E-01    1.375000E-01    1.114566E+01   -1.520852E+02    4.254603E+02    4.518256E+02
   7.875000E-01    1.375000E-01    1.133835E+01   -1.639767E+02    4.003180E+02    4.326001E+02
   8.125000E-01    1.375000E-01    1.154756E+01   -1.789733E+02    3.708075E+02    4.117398E+02
   8.375000E-01    1.375000E-01    1.177701E+01   -1.968904E+02    3.348346E+02    3.884328E+02
   8.625000E-01    1.375000E-01    1.203013E+01   -2.174225E+02    2.893055E+02    3.618980E+02
   8.875000E-01    1.375000E-01    1.230991E+01   -2.402586E+02    2.295531E+02    3.322933E+02
   9.125000E-01    1.375000E-01    1.261900E+01   -2.655247E+02    1.484969E+02    3.042280E+02
   9.375000E-01    1.375000E-01    1.296071E+01   -2.949423E+02    3.557012E+01    2.970795E+02
   9.625000E-01    1.375000E-01    1.334190E+01   -3.342840E+02   -1.241530E+02    3.565947E+02
   9.875000E-01    1.375000E-01    1.378003E+01   -3.974479E+02   -3.491195E+02    5.290078E+02
   1.012500E+00    1.375000E-01    1.431604E+01   -5.104322E+02   -6.551719E+02    8.305367E+02
   1.037500E+00    1.375000E-01    1.503109E+01    0.000000E+00    0.000000E+00    0.000000E+00
   1.250000E-02    1.625000E-01   -2.626602E+01   -5.000000E+03    0.000000E+00    5.000000E+03
   3.750000E-02    1.625000E-01   -2.109828E+01   -4.087895E+03    1.890926E+03    4.504053E+03
   6.250000E-02    1.625000E-01   -1.662476E+01   -3.525865E+03    1.887946E+03    3.999508E+03
   8.750000E-02    1.625000E-01   -1.278256E+01   -3.022402E+03    1.824236E+03    3.530262E+03
   1.125000E-01    1.625000E-01   -9.496455E+00   -2.582982E+03    1.724058E+03    3.105506E+03
   1.375000E-01    1.625000E-01   -6.690626E+00   -2.205372E+03    1.606053E+03    2.728200E+03
   1.625000E-01    1.625000E-01   -4.295105E+00   -1.883545E+03    1.482942E+03    2.397261E+03
   1.875000E-01    1.625000E-01   -2.248302E+00   -1.610248E+03    1.362638E+03    2.109427E+03
   2.125000E-01    1.625000E-01   -4.973503E-01   -1.378370E+03    1.249621E+03    1.860499E+03
   2.375000E-01    1.625000E-01    1.002570E+00   -1.181530E+03    1.146092E+03    1.646068E+03
   2.625000E-01    1.625000E-01    2.289278E+00   -1.014247E+03    1.052829E+03    1.461898E+03
   2.875000E-01    1.625000E-01    3.394663E+00   -8.719089E+02    9.697554E+02    1.304090E+03
   3.125000E-01    1.625000E-01    4.345666E+00   -7.506716E+02    8.963243E+02    1.169147E+03
   3.375000E-01    1.625000E-01    5.165114E+00   -6.473402E+02    8.317469E+02    1.053970E+03
   3.625000E-01    1.625000E-01    5.872412E+00   -5.592584E+02    7.751379E+02    9.558288E+02
   3.875000E-01    1.625000E-01    6.484120E+00   -4.842135E+02    7.255994E+02    8.723286E+02
   4.125000E-01    1.625000E-01    7.014425E+00   -4.203597E+02    6.822674E+02    8.013682E+02
   4.375000E-01    1.625000E-01    7.475534E+00   -3.661551E+02    6.443355E+02    7.411058E+02
   4.625000E-01    1.625000E-01    7.877999E+00   -3.203127E+02    6.110650E+02    6.899280E+02
   4.875000E-01    1.625000E-01    8.230989E+00   -2.817606E+02    5.817857E+02    6.464238E+02
   5.125000E-01    1.625000E-01    8.542528E+00   -2.496110E+02    5.558927E+02    6.093623E+02
   5.375000E-01    1.625000E-01    8.819694E+00   -2.231354E+02    5.328394E+02    5.776740E+02
   5.625000E-01    1.625000E-01    9.068791E+00   -2.017453E+02    5.121289E+02    5.504336E+02
   5.875000E-01    1.625000E-01    9.295508E+00   -1.849775E+02    4.933042E+02    5.268450E+02
   6.125000E-01    1.625000E-01    9.505059E+00   -1.724830E+02    4.759366E+02    5.062273E+02
   6.375000E-01    1.625000E-01    9.702308E+00   -1.640187E+02    4.596119E+02    4.880013E+02
   6.625000E-01    1.625000E-01    9.891895E+00   -1.594419E+02    4.439131E+02    4.716785E+02
   6.875000E-01    1.625000E-01    1.007835E+01   -1.587073E+02    4.283976E+02    4.568507E+02
   7.125000E-01    1.625000E-01    1.026621E+01   -1.618648E+02    4.125658E+02    4.431826E+02
   7.375000E-01    1.625000E-01    1.046011E+01   -1.690596E+02    3.958161E+02    4.304085E+02
   7.625000E-01    1.625000E-01    1.066493E+01   -1.805340E+02    3.773790E+02    4.183389E+02
   7.875000E-01    1.625000E-01    1.088589E+01   -1.966350E+02    3.562203E+02    4.068884E+02
   8.125000E-01    1.625000E-01    1.112869E+01   -2.178329E+02    3.308974E+02    3.961620E+02
   8.375000E-01    1.625000E-01    1.139965E+01   -2.447715E+02    2.993518E+02    3.866841E+02
   8.625000E-01    1.625000E-01    1.170598E+01   -2.783840E+02    2.586154E+02    3.799732E+02
   8.875000E-01    1.625000E-01    1.205622E+01   -3.201486E+02    2.044245E+02    3.798480E+02
   9.125000E-01    1.625000E-01    1.246105E+01   -3.725989E+02    1.307773E+02    3.948831E+02
   9.375000E-01    1.625000E-01    1.293499E+01   -4.402453E+02    2.959611E+01    4.412390E+02
   9.625000E-01    1.625000E-01    1.349937E+01   -5.309834E+02   -1.090785E+02    5.420715E+02
   9.875000E-01    1.625000E-01    1.418731E+01   -6.576583E+02   -2.955134E+02    7.210011E+02
   1.012500E+00    1.625000E-01    1.505045E+01   -8.383728E+02   -5.362279E+02    9.951931E+02
   1.037500E+00    1.625000E-01    1.616460E+01    0.000000E+00    0.000000E+00    0.000000E+00
   1.250000E-02    1.875000E-01   -2.795728E+01   -5.000000E+03    0.000000E+00    5.000000E+03
   3.750000E-02    1.875000E-01   -2.290359E+01   -4.179656E+03    1.268020E+03    4.367768E+03
   6.250000E-02    1.875000E-01   -1.845807E+01   -3.662479E+03    1.309908E+03    3.889680E+03
   8.750000E-02    1.875000E-01   -1.457978E+01   -3.186657E+03    1.301641E+03    3.442245E+03
   1.125000E-01    1.875000E-01   -1.121566E+01   -2.759454E+03    1.259048E+03    3.033115E+03
   1.375000E-01    1.875000E-01   -8.308290E+00   -2.382397E+03    1.195711E+03    2.665622E+03
   1.625000E-01    1.875000E-01   -5.801126E+00   -2.053359E+03    1.121954E+03    2.339885E+03
   1.875000E-01    1.875000E-01   -3.641565E+00   -1.768300E+03    1.044957E+03    2.053977E+03
   2.125000E-01    1.875000E-01   -1.782263E+00   -1.522442E+03    9.693545E+02    1.804848E+03
   2.375000E-01    1.875000E-01   -1.814690E-01   -1.310963E+03    8.978936E+02    1.588973E+03
   2.625000E-01    1.875000E-01    1.197198E+00   -1.129347E+03    8.320214E+02    1.402742E+03
   2.875000E-01    1.875000E-01    2.385228E+00   -9.735354E+02    7.723289E+02    1.242684E+03
   3.125000E-01    1.875000E-01    3.409779E+00   -8.399650E+02    7.188712E+02    1.105584E+03
   3.375000E-01    1.875000E-01    4.294240E+00   -7.255490E+02    6.713861E+02    9.885245E+02
   3.625000E-01    1.875000E-01    5.058754E+00   -6.276354E+02    6.294380E+02    8.888860E+02
   3.875000E-01    1.875000E-01    5.720684E+00   -5.439575E+02    5.925102E+02    8.043370E+02
   4.125000E-01    1.875000E-01    6.295021E+00   -4.725853E+02    5.600617E+02    7.328069E+02