TITLE = "Convection Diffusion Initial Conditions"
VARIABLES = "X", "Y", "u", "v", "V"
ZONE T="Zone 1", I=27, J=27, DATAPACKING=POINT, ZONETYPE=ORDERED
   0.000000E+00    0.000000E+00    0.000000E+00    0.000000E+00    0.000000E+00
   6.863085E-03    0.000000E+00    0.000000E+00    0.000000E+00    1.414214E-10
   2.302756E-02    0.000000E+00    0.000000E+00    0.000000E+00    1.414214E-10
   4.486176E-02    0.000000E+00    0.000000E+00    0.000000E+00    1.414214E-10
   7.414954E-02    0.000000E+00    0.000000E+00    0.000000E+00    1.414214E-10
   1.130712E-01    0.000000E+00    0.000000E+00    0.000000E+00    1.414214E-10
   1.641615E-01    0.000000E+00    0.000000E+00    0.000000E+00    1.414214E-10
   2.301531E-01    0.000000E+00    0.000000E+00    0.000000E+00    1.414214E-10
   3.136459E-01    0.000000E+00    0.000000E+00    0.000000E+00    1.414214E-10
   4.165693E-01    0.000000E+00    0.000000E+00    0.000000E+00    1.414214E-10
   5.394704E-01    0.000000E+00    0.000000E+00    0.000000E+00    1.414214E-10
   6.807950E-01    0.000000E+00    0.000000E+00    0.000000E+00    1.414214E-10
   8.364541E-01    0.000000E+00    0.000000E+00    0.000000E+00    1.414214E-10
   9.999997E-01    0.000000E+00    0.000000E+00    0.000000E+00    1.414214E-10
   1.163546E+00    0.000000E+00    0.000000E+00    0.000000E+00    1.414214E-10
   1.319205E+00    0.000000E+00    0.000000E+00    0.000000E+00    1.414214E-10
   1.460529E+00    0.000000E+00    0.000000E+00    0.000000E+00    1.414214E-10
   1.583430E+00    0.000000E+00    0.000000E+00    0.000000E+00    1.414214E-10
   1.686354E+00    0.000000E+00    0.000000E+00    0.000000E+00    1.414214E-10
   1.769847E+00    0.000000E+00    0.000000E+00    0.000000E+00    1.414214E-10
   1.835838E+00    0.000000E+00    0.000000E+00    0.000000E+00    1.414214E-10
   1.886929E+00    0.000000E+00    0.000000E+00    0.000000E+00    1.000000E+00
   1.925850E+00    0.000000E+00    0.000000E+00    0.000000E+00    1.000000E+00
   1.955138E+00    0.000000E+00    0.000000E+00    0.000000E+00    1.000000E+00
   1.976973E+00    0.000000E+00    0.000000E+00    0.000000E+00    1.000000E+00
   1.993137E+00    0.000000E+00    0.000000E+00    0.000000E+00    1.000000E+00
   2.000000E+00    0.000000E+00    1.000000E+00    0.000000E+00    0.000000E+00
   0.000000E+00    6.863085E-03    0.000000E+00    0.000000E+00    1.414214E-10
   6.863085E-03    6.863085E-03   -3.117408E-06    2.597374E-06    4.057657E-06
   2.302756E-02    6.863085E-03    5.794958E-06   -1.123753E-05    1.264372E-05
   4.486176E-02    6.863085E-03    2.029725E-05   -1.011483E-04    1.031647E-04
   7.414954E-02    6.863085E-03    3.131019E-05   -3.212789E-04    3.228010E-04
   1.130712E-01    6.863085E-03    3.462072E-05   -6.883842E-04    6.892543E-04
   1.641615E-01    6.863085E-03    2.673026E-05   -1.134857E-03    1.135172E-03
   2.301531E-01    6.863085E-03    4.496648E-07   -1.394515E-03    1.394515E-03
   3.136459E-01    6.863085E-03   -5.633263E-05   -7.385587E-04    7.407039E-04
   4.165693E-01    6.863085E-03   -1.351364E-04    2.187328E-03    2.191498E-03
   5.394704E-01    6.863085E-03   -1.576347E-04    7.784783E-03    7.786379E-03
   6.807950E-01    6.863085E-03   -7.618195E-05    1.285002E-02    1.285025E-02
   8.364541E-01    6.863085E-03    2.304131E-05    1.393508E-02    1.393510E-02
   9.999997E-01    6.863085E-03    7.474556E-05    1.144130E-02    1.144154E-02
   1.163546E+00    6.863085E-03    7.920864E-05    7.625665E-03    7.626076E-03
   1.319205E+00    6.863085E-03    5.590868E-05    4.432343E-03    4.432695E-03
   1.460529E+00    6.863085E-03    1.724206E-05    2.753735E-03    2.753789E-03
   1.583430E+00    6.863085E-03   -7.308693E-05    3.136374E-03    3.137225E-03
   1.686354E+00    6.863085E-03   -4.049122E-04    7.817848E-03    7.828327E-03
   1.769847E+00    6.863085E-03   -1.986535E-03    2.144057E-02    2.153241E-02
   1.835838E+00    6.863085E-03    8.711166E-03    3.138033E-02    3.256700E-02
   1.886929E+00    6.863085E-03    9.960400E-01   -1.673424E-02    9.961806E-01
   1.925850E+00    6.863085E-03    1.001321E+00   -1.688939E-02    1.001463E+00
   1.955138E+00    6.863085E-03    1.006110E+00   -3.556557E-02    1.006738E+00
   1.976973E+00    6.863085E-03    1.031855E+00   -9.828214E-02    1.036525E+00
   1.993137E+00    6.863085E-03    9.200664E-01   -1.624940E-01    9.343053E-01
   2.000000E+00    6.863085E-03    1.000000E+00    0.000000E+00    1.414214E-10
   0.000000E+00    2.302756E-02    0.000000E+00    0.000000E+00    1.414214E-10
   6.863085E-03    2.302756E-02    1.008895E-05   -6.532075E-06    1.201894E-05
   2.302756E-02    2.302756E-02    9.406816E-05   -9.656628E-05    1.348105E-04
   4.486176E-02    2.302756E-02    2.175287E-04   -4.017074E-04    4.568234E-04
   7.414954E-02    2.302756E-02    3.199031E-04   -1.069434E-03    1.116256E-03
   1.130712E-01    2.302756E-02    3.493484E-04   -2.158169E-03    2.186262E-03
   1.641615E-01    2.302756E-02    2.566808E-04   -3.445048E-03    3.454597E-03
   2.301531E-01    2.302756E-02   -3.787989E-05   -4.040598E-03    4.040776E-03
   3.136459E-01    2.302756E-02   -6.485275E-04   -1.614477E-03    1.739864E-03
   4.165693E-01    2.302756E-02   -1.466640E-03    7.937540E-03    8.071901E-03
   5.394704E-01    2.302756E-02   -1.698423E-03    2.573825E-02    2.579423E-02
   6.807950E-01    2.302756E-02   -8.561321E-04    4.202735E-02    4.203607E-02
   8.364541E-01    2.302756E-02    1.941535E-04    4.621354E-02    4.621395E-02
   9.999997E-01    2.302756E-02    7.834019E-04    3.896280E-02    3.897068E-02
   1.163546E+00    2.302756E-02    8.749652E-04    2.685485E-02    2.686910E-02
   1.319205E+00    2.302756E-02    6.432197E-04    1.620525E-02    1.621801E-02
   1.460529E+00    2.302756E-02    2.127995E-04    1.035980E-02    1.036199E-02
   1.583430E+00    2.302756E-02   -7.704833E-04    1.134668E-02    1.137280E-02
   1.686354E+00    2.302756E-02   -3.961707E-03    2.531619E-02    2.562430E-02
   1.769847E+00    2.302756E-02   -1.371465E-02    6.064607E-02    6.217747E-02
   1.835838E+00    2.302756E-02    5.108266E-02    6.225552E-02    8.053066E-02
   1.886929E+00    2.302756E-02    9.853916E-01   -4.827379E-02    9.865733E-01
   1.925850E+00    2.302756E-02    1.011748E+00   -5.355194E-02    1.013164E+00
   1.955138E+00    2.302756E-02    1.045138E+00   -1.005967E-01    1.049968E+00
   1.976973E+00    2.302756E-02    1.100770E+00   -1.767659E-01    1.114873E+00
   1.993137E+00    2.302756E-02    6.975017E-01   -1.107260E-01    7.062357E-01
   2.000000E+00    2.302756E-02    1.000000E+00    0.000000E+00    1.414214E-10
   0.000000E+00    4.486176E-02    0.000000E+00    0.000000E+00    1.414214E-10
   6.863085E-03    4.486176E-02    1.001282E-04   -2.095000E-05    1.022965E-04
   2.302756E-02    4.486176E-02    3.982242E-04   -2.202502E-04    4.550744E-04
   4.486176E-02    4.486176E-02    7.672588E-04   -7.717733E-04    1.088265E-03
   7.414954E-02    4.486176E-02    1.073769E-03   -1.863166E-03    2.150434E-03
   1.130712E-01    4.486176E-02    1.146490E-03   -3.560205E-03    3.740254E-03
   1.641615E-01    4.486176E-02    7.888678E-04   -5.441390E-03    5.498276E-03
   2.301531E-01    4.486176E-02   -2.867221E-04   -5.889502E-03    5.896478E-03
   3.136459E-01    4.486176E-02   -2.431108E-03   -8.951419E-04    2.590669E-03
   4.165693E-01    4.486176E-02   -5.212512E-03    1.611560E-02    1.693762E-02
   5.394704E-01    4.486176E-02   -5.986933E-03    4.665239E-02    4.703498E-02
   6.807950E-01    4.486176E-02   -3.123228E-03    7.471551E-02    7.478076E-02
   8.364541E-01    4.486176E-02    4.841110E-04    8.354281E-02    8.354421E-02
   9.999997E-01    4.486176E-02    2.660057E-03    7.298672E-02    7.303518E-02
   1.163546E+00    4.486176E-02    3.149412E-03    5.262331E-02    5.271747E-02
   1.319205E+00    4.486176E-02    2.418311E-03    3.328225E-02    3.336999E-02
   1.460529E+00    4.486176E-02    8.744294E-04    2.192038E-02    2.193781E-02
   1.583430E+00    4.486176E-02   -2.525720E-03    2.261237E-02    2.275299E-02
   1.686354E+00    4.486176E-02   -1.212440E-02    4.326791E-02    4.493454E-02
   1.769847E+00    4.486176E-02   -2.896935E-02    8.735517E-02    9.203341E-02
   1.835838E+00    4.486176E-02    1.244839E-01    4.746740E-02    1.332269E-01
   1.886929E+00    4.486176E-02    9.762951E-01   -7.614159E-02    9.792598E-01
   1.925850E+00    4.486176E-02    1.035573E+00   -8.922602E-02    1.039410E+00
   1.955138E+00    4.486176E-02    1.098942E+00   -1.360452E-01    1.107331E+00
   1.976973E+00    4.486176E-02    1.073368E+00   -1.484481E-01    1.083585E+00
   1.993137E+00    4.486176E-02    4.845052E-01   -3.677584E-02    4.858989E-01
   2.000000E+00    4.486176E-02    1.000000E+00    0.000000E+00    1.414214E-10
   0.000000E+00    7.414954E-02    0.000000E+00    0.000000E+00    1.414214E-10
   6.863085E-03    7.414954E-02    3.202918E-04   -3.153012E-05    3.218400E-04
   2.302756E-02    7.414954E-02    1.063592E-03   -3.194598E-04    1.110532E-03
   4.486176E-02    7.414954E-02    1.854401E-03   -1.070064E-03    2.140991E-03
   7.414954E-02    7.414954E-02    2.464556E-03   -2.459396E-03    3.481762E-03
   1.130712E-01    7.414954E-02    2.525806E-03   -4.474967E-03    5.138582E-03
   1.641615E-01    7.414954E-02    1.535596E-03   -6.408066E-03    6.589489E-03
   2.301531E-01    7.414954E-02   -1.210249E-03   -5.839300E-03    5.963399E-03
   3.136459E-01    7.414954E-02   -6.421236E-03    2.805234E-03    7.007254E-03
   4.165693E-01    7.414954E-02   -1.291091E-02    2.783986E-02    3.068794E-02
   5.394704E-01    7.414954E-02   -1.455388E-02    7.021372E-02    7.170622E-02
   6.807950E-01    7.414954E-02   -7.863561E-03    1.084132E-01    1.086980E-01
   8.364541E-01    7.414954E-02    5.448611E-04    1.232781E-01    1.232793E-01
   9.999997E-01    7.414954E-02    6.085058E-03    1.124242E-01    1.125888E-01
   1.163546E+00    7.414954E-02    7.798801E-03    8.579460E-02    8.614833E-02
   1.319205E+00    7.414954E-02    6.379783E-03    5.763172E-02    5.798377E-02
   1.460529E+00    7.414954E-02    2.621121E-03    3.916370E-02    3.925132E-02
   1.583430E+00    7.414954E-02   -5.276840E-03    3.731447E-02    3.768574E-02
   1.686354E+00    7.414954E-02   -2.396968E-02    5.866313E-02    6.337120E-02
   1.769847E+00    7.414954E-02   -3.608540E-02    9.333025E-02    1.000634E-01
   1.835838E+00    7.414954E-02    2.219577E-01    9.617137E-03    2.221660E-01
   1.886929E+00    7.414954E-02    9.753696E-01   -9.761051E-02    9.802416E-01
   1.925850E+00    7.414954E-02    1.066212E+00   -1.137757E-01    1.072265E+00
   1.955138E+00    7.414954E-02    1.121475E+00   -1.374855E-01    1.129871E+00
   1.976973E+00    7.414954E-02    9.499756E-01   -9.735679E-02    9.549513E-01
   1.993137E+00    7.414954E-02    3.445044E-01   -1.309513E-02    3.447532E-01
   2.000000E+00    7.414954E-02    1.000000E+00    0.000000E+00    1.414214E-10
   0.000000E+00    1.130712E-01    0.000000E+00    0.000000E+00    1.414214E-10
   6.863085E-03    1.130712E-01    6.802429E-04   -3.347902E-05    6.810663E-04
   2.302756E-02    1.130712E-01    2.133089E-03   -3.391723E-04    2.159886E-03
   4.486176E-02    1.130712E-01    3.530855E-03   -1.121681E-03    3.704741E-03
   7.414954E-02    1.130712E-01    4.473217E-03   -2.499161E-03    5.124010E-03
   1.130712E-01    1.130712E-01    4.283841E-03   -4.282250E-03    6.057141E-03
   1.641615E-01    1.130712E-01    1.954495E-03   -5.344987E-03    5.691128E-03
   2.301531E-01    1.130712E-01   -3.883112E-03   -2.401274E-03    4.565597E-03
   3.136459E-01    1.130712E-01   -1.431018E-02    1.143815E-02    1.831973E-02
   4.165693E-01    1.130712E-01   -2.660745E-02    4.524239E-02    5.248648E-02
   5.394704E-01    1.130712E-01   -2.868501E-02    9.638964E-02    1.005674E-01
   6.807950E-01    1.130712E-01   -1.608347E-02    1.404315E-01    1.413495E-01
   8.364541E-01    1.130712E-01   -4.042764E-04    1.610878E-01    1.610883E-01
   9.999997E-01    1.130712E-01    1.095514E-02    1.535122E-01    1.539026E-01
   1.163546E+00    1.130712E-01    1.557157E-02    1.249204E-01    1.258872E-01
   1.319205E+00    1.130712E-01    1.382551E-02    9.011880E-02    9.117314E-02
   1.460529E+00    1.130712E-01    6.762172E-03    6.374405E-02    6.410173E-02
   1.583430E+00    1.130712E-01   -7.728322E-03    5.553304E-02    5.606823E-02
   1.686354E+00    1.130712E-01   -3.575011E-02    6.914516E-02    7.784038E-02
   1.769847E+00    1.130712E-01   -2.507988E-02    7.896446E-02    8.285159E-02
   1.835838E+00    1.130712E-01    3.320156E-01   -2.817127E-02    3.332086E-01
   1.886929E+00    1.130712E-01    9.828240E-01   -1.100736E-01    9.889688E-01
   1.925850E+00    1.130712E-01    1.089735E+00   -1.223766E-01    1.096585E+00
   1.955138E+00    1.130712E-01    1.087878E+00   -1.172684E-01    1.094180E+00
   1.976973E+00    1.130712E-01    7.909331E-01   -5.823990E-02    7.930744E-01
   1.993137E+00    1.130712E-01    2.540411E-01   -6.119764E-03    2.541148E-01
   2.000000E+00    1.130712E-01    1.000000E+00    0.000000E+00    1.414214E-10
   0.000000E+00    1.641615E-01    0.000000E+00    0.000000E+00    1.414214E-10
   6.863085E-03    1.641615E-01    1.102343E-03   -2.504468E-05    1.102627E-03
   2.302756E-02    1.641615E-01    3.379284E-03   -2.512658E-04    3.388612E-03
   4.486176E-02    1.641615E-01    5.415534E-03   -8.096019E-04    5.475716E-03
   7.414954E-02    1.641615E-01    6.503659E-03   -1.685682E-03    6.718564E-03
   1.130712E-01    1.641615E-01    5.465979E-03   -2.406324E-03    5.972212E-03
   1.641615E-01    1.641615E-01    5.311895E-04   -1.274420E-03    1.380691E-03
   2.301531E-01    1.641615E-01   -1.056238E-02    5.988790E-03    1.214206E-02
   3.136459E-01    1.641615E-01   -2.903087E-02    2.738223E-02    3.990712E-02
   4.165693E-01    1.641615E-01   -4.871992E-02    7.125738E-02    8.632060E-02
   5.394704E-01    1.641615E-01   -4.855601E-02    1.254553E-01    1.345240E-01
   6.807950E-01    1.641615E-01   -2.807534E-02    1.694578E-01    1.717678E-01
   8.364541E-01    1.641615E-01   -3.205136E-03    1.926791E-01    1.927058E-01
   9.999997E-01    1.641615E-01    1.638866E-02    1.899580E-01    1.906637E-01
   1.163546E+00    1.641615E-01    2.636075E-02    1.644863E-01    1.665852E-01
   1.319205E+00    1.641615E-01    2.577360E-02    1.278010E-01    1.303740E-01
   1.460529E+00    1.641615E-01    1.535030E-02    9.483354E-02    9.606785E-02
   1.583430E+00    1.641615E-01   -6.321654E-03    7.648622E-02    7.674702E-02
   1.686354E+00    1.641615E-01   -4.063467E-02    7.385489E-02    8.429544E-02
   1.769847E+00    1.641615E-01    1.262575E-02    5.306298E-02    5.454438E-02
   1.835838E+00    1.641615E-01    4.462587E-01   -5.537200E-02    4.496809E-01
   1.886929E+00    1.641615E-01    9.946603E-01   -1.127331E-01    1.001028E+00
   1.925850E+00    1.641615E-01    1.090224E+00   -1.156538E-01    1.096341E+00
   1.955138E+00    1.641615E-01    9.987471E-01   -8.868443E-02    1.002677E+00
   1.976973E+00    1.641615E-01    6.368111E-01   -3.401393E-02    6.377188E-01
   1.993137E+00    1.641615E-01    1.913474E-01   -3.230829E-03    1.913747E-01
   2.000000E+00    1.641615E-01    0.000000E+00    0.000000E+00    1.414214E-10
   0.000000E+00    2.301531E-01    0.000000E+00    0.000000E+00    1.414214E-10
   6.863085E-03    2.301531E-01    1.407231E-03   -9.557613E-06    1.407264E-03
   2.302756E-02    2.301531E-01    4.222173E-03   -8.070590E-05    4.222944E-03
   4.486176E-02    2.301531E-01    6.475256E-03   -1.865613E-04    6.477943E-03
   7.414954E-02    2.301531E-01    6.990168E-03   -6.106900E-05    6.990435E-03
   1.130712E-01    2.301531E-01    3.808226E-03    1.227191E-03    4.001073E-03
   1.641615E-01    2.301531E-01   -5.965423E-03    6.208685E-03    8.610113E-03
   2.301531E-01    2.301531E-01   -2.563603E-02    2.048626E-02    3.281604E-02
   3.136459E-01    2.301531E-01   -5.556586E-02    5.288300E-02    7.670838E-02
   4.165693E-01    2.301531E-01   -8.032788E-02    1.054740E-01    1.325795E-01
   5.394704E-01    2.301531E-01   -7.269052E-02    1.556060E-01    1.717473E-01
   6.807950E-01    2.301531E-01   -4.267695E-02    1.938281E-01    1.984708E-01
   8.364541E-01    2.301531E-01   -7.800574E-03    2.148863E-01    2.150278E-01
   9.999997E-01    2.301531E-01    2.131401E-02    2.152775E-01    2.163300E-01
   1.163546E+00    2.301531E-01    3.887580E-02    1.955053E-01    1.993330E-01
   1.319205E+00    2.301531E-01    4.208623E-02    1.620546E-01    1.674304E-01
   1.460529E+00    2.301531E-01    3.056310E-02    1.258643E-01    1.295219E-01
   1.583430E+00    2.301531E-01    4.436293E-03    9.615066E-02    9.625295E-02
   1.686354E+00    2.301531E-01   -2.897266E-02    7.300995E-02    7.854851E-02
   1.769847E+00    2.301531E-01    8.069983E-02    2.563033E-02    8.467217E-02
   1.835838E+00    2.301531E-01    5.519875E-01   -6.937319E-02    5.563298E-01
   1.886929E+00    2.301531E-01    1.003353E+00   -1.059627E-01    1.008933E+00
   1.925850E+00    2.301531E-01    1.056308E+00   -9.757122E-02    1.060805E+00
   1.955138E+00    2.301531E-01    8.744978E-01   -6.093753E-02    8.766184E-01
   1.976973E+00    2.301531E-01    5.058571E-01   -1.969639E-02    5.062404E-01
   1.993137E+00    2.301531E-01    1.464253E-01   -1.765321E-03    1.464359E-01
   2.000000E+00    2.301531E-01    0.000000E+00    0.000000E+00    1.414214E-10
   0.000000E+00    3.136459E-01    0.000000E+00    0.000000E+00    1.414214E-10
   6.863085E-03    3.136459E-01    1.393175E-03    6.570150E-06    1.393191E-03
   2.302756E-02    3.136459E-01    3.919711E-03    1.140122E-04    3.921369E-03
   4.486176E-02    3.136459E-01    5.197323E-03    5.793420E-04    5.229513E-03
   7.414954E-02    3.136459E-01    3.348733E-03    2.087148E-03    3.945910E-03
   1.130712E-01    3.136459E-01   -4.754846E-03    6.356995E-03    7.938510E-03
   1.641615E-01    3.136459E-01   -2.358013E-02    1.733128E-02    2.926423E-02
   2.301531E-01    3.136459E-01   -5.712399E-02    4.243102E-02    7.115857E-02
   3.136459E-01    3.136459E-01   -9.988416E-02    8.732523E-02    1.326746E-01
   4.165693E-01    3.136459E-01   -1.180997E-01    1.372688E-01    1.810808E-01
   5.394704E-01    3.136459E-01   -9.826062E-02    1.774982E-01    2.028811E-01
   6.807950E-01    3.136459E-01   -5.765789E-02    2.065050E-01    2.144032E-01
   8.364541E-01    3.136459E-01   -1.308643E-02    2.226140E-01    2.229983E-01
   9.999997E-01    3.136459E-01    2.542433E-02    2.237362E-01    2.251761E-01
   1.163546E+00    3.136459E-01    5.159808E-02    2.091479E-01    2.154187E-01
   1.319205E+00    3.136459E-01    6.138754E-02    1.812918E-01    1.914031E-01
   1.460529E+00    3.136459E-01    5.342772E-02    1.454680E-01    1.549692E-01
   1.583430E+00    3.136459E-01    2.933755E-02    1.071617E-01    1.111050E-01
   1.686354E+00    3.136459E-01    6.785544E-03    6.701414E-02    6.735680E-02
   1.769847E+00    3.136459E-01    1.717475E-01    3.618347E-03    1.717856E-01
   1.835838E+00    3.136459E-01    6.425346E-01   -7.210956E-02    6.465682E-01
   1.886929E+00    3.136459E-01    9.997493E-01   -9.192367E-02    1.003966E+00
   1.925850E+00    3.136459E-01    9.878190E-01   -7.432284E-02    9.906111E-01
   1.955138E+00    3.136459E-01    7.429359E-01   -3.887639E-02    7.439524E-01
   1.976973E+00    3.136459E-01    4.034798E-01   -1.126605E-02    4.036371E-01
   1.993137E+00    3.136459E-01    1.145669E-01   -9.660260E-04    1.145710E-01
   2.000000E+00    3.136459E-01    0.000000E+00    0.000000E+00    1.414214E-10
   0.000000E+00    4.165693E-01    0.000000E+00    0.000000E+00    1.414214E-10
   6.863085E-03    4.165693E-01    8.367855E-04    2.730602E-05    8.372309E-04
   2.302756E-02    4.165693E-01    1.532407E-03    3.765830E-04    1.578001E-03
   4.486176E-02    4.165693E-01   -5.994443E-04    1.651875E-03    1.757277E-03
   7.414954E-02    4.165693E-01   -8.607491E-03    5.209898E-03    1.006141E-02
   1.130712E-01    4.165693E-01   -2.737112E-02    1.405380E-02    3.076829E-02
   1.641615E-01    4.165693E-01   -6.295521E-02    3.389796E-02    7.150126E-02
   2.301531E-01    4.165693E-01   -1.128078E-01    6.942222E-02    1.324577E-01
   3.136459E-01    4.165693E-01   -1.535223E-01    1.147804E-01    1.916863E-01
   4.165693E-01    4.165693E-01   -1.545008E-01    1.537794E-01    2.179876E-01
   5.394704E-01    4.165693E-01   -1.208071E-01    1.816108E-01    2.181212E-01
   6.807950E-01    4.165693E-01   -7.056483E-02    1.995868E-01    2.116938E-01
   8.364541E-01    4.165693E-01   -1.779407E-02    2.093357E-01    2.100906E-01
   9.999997E-01    4.165693E-01    2.891435E-02    2.097864E-01    2.117696E-01
   1.163546E+00    4.165693E-01    6.363327E-02    1.990923E-01    2.090142E-01
   1.319205E+00    4.165693E-01    8.218879E-02    1.764952E-01    1.946935E-01
   1.460529E+00    4.165693E-01    8.289014E-02    1.436719E-01    1.658686E-01
   1.583430E+00    4.165693E-01    6.807707E-02    1.033196E-01    1.237313E-01
   1.686354E+00    4.165693E-01    6.670313E-02    5.482270E-02    8.634139E-02
   1.769847E+00    4.165693E-01    2.743809E-01   -1.129223E-02    2.746132E-01
   1.835838E+00    4.165693E-01    7.138618E-01   -6.797967E-02    7.170913E-01
   1.886929E+00    4.165693E-01    9.773921E-01   -7.512324E-02    9.802749E-01
   1.925850E+00    4.165693E-01    8.968491E-01   -5.283792E-02    8.984042E-01
   1.955138E+00    4.165693E-01    6.254529E-01   -2.403349E-02    6.259145E-01
   1.976973E+00    4.165693E-01    3.280560E-01   -6.511127E-03    3.281206E-01
   1.993137E+00    4.165693E-01    9.251256E-02   -5.413345E-04    9.251415E-02
   2.000000E+00    4.165693E-01    0.000000E+00    0.000000E+00    1.414214E-10
   0.000000E+00    5.394704E-01    0.000000E+00    0.000000E+00    1.414214E-10
   6.863085E-03    5.394704E-01   -9.482028E-04    6.885108E-05    9.506993E-04
   2.302756E-02    5.394704E-01   -5.391612E-03    8.679640E-04    5.461029E-03
   4.486176E-02    5.394704E-01   -1.581279E-02    3.546744E-03    1.620567E-02
   7.414954E-02    5.394704E-01   -3.700552E-02    1.035996E-02    3.842834E-02
   1.130712E-01    5.394704E-01   -7.490288E-02    2.528554E-02    7.905567E-02
   1.641615E-01    5.394704E-01   -1.287731E-01    5.211895E-02    1.389205E-01
   2.301531E-01    5.394704E-01   -1.816399E-01    8.896723E-02    2.022578E-01
   3.136459E-01    5.394704E-01   -2.045609E-01    1.255647E-01    2.400243E-01
   4.165693E-01    5.394704E-01   -1.836189E-01    1.505902E-01    2.374728E-01
   5.394704E-01    5.394704E-01   -1.354717E-01    1.639464E-01    2.126758E-01
   6.807950E-01    5.394704E-01   -7.777038E-02    1.697985E-01    1.867612E-01
   8.364541E-01    5.394704E-01   -2.024718E-02    1.723728E-01    1.735579E-01
   9.999997E-01    5.394704E-01    3.218406E-02    1.713709E-01    1.743669E-01
   1.163546E+00    5.394704E-01    7.487050E-02    1.631795E-01    1.795359E-01
   1.319205E+00    5.394704E-01    1.032530E-01    1.450696E-01    1.780628E-01
   1.460529E+00    5.394704E-01    1.153366E-01    1.171251E-01    1.643801E-01
   1.583430E+00    5.394704E-01    1.142621E-01    8.130375E-02    1.402360E-01
   1.686354E+00    5.394704E-01    1.420014E-01    3.582225E-02    1.464501E-01
   1.769847E+00    5.394704E-01    3.758236E-01   -2.278606E-02    3.765137E-01
   1.835838E+00    5.394704E-01    7.646906E-01   -6.408960E-02    7.673716E-01
   1.886929E+00    5.394704E-01    9.352811E-01   -6.214555E-02    9.373435E-01
   1.925850E+00    5.394704E-01    7.981584E-01   -3.852877E-02    7.990878E-01
   1.955138E+00    5.394704E-01    5.285136E-01   -1.605629E-02    5.287574E-01
   1.976973E+00    5.394704E-01    2.724987E-01   -4.245106E-03    2.725318E-01
   1.993137E+00    5.394704E-01    7.675363E-02   -3.538296E-04    7.675445E-02
   2.000000E+00    5.394704E-01    0.000000E+00    0.000000E+00    1.414214E-10
   0.000000E+00    6.807950E-01    0.000000E+00    0.000000E+00    1.414214E-10
   6.863085E-03    6.807950E-01   -5.275832E-03    1.330148E-04    5.277509E-03
   2.302756E-02    6.807950E-01   -2.100756E-02    1.571289E-03    2.106624E-02
   4.486176E-02    6.807950E-01   -4.729276E-02    6.045434E-03    4.767759E-02
   7.414954E-02    6.807950E-01   -8.901509E-02    1.621304E-02    9.047955E-02
   1.130712E-01    6.807950E-01   -1.466459E-01    3.503591E-02    1.507731E-01
   1.641615E-01    6.807950E-01   -2.079269E-01    6.275994E-02    2.171921E-01
   2.301531E-01    6.807950E-01   -2.466241E-01    9.285721E-02    2.635259E-01
   3.136459E-01    6.807950E-01   -2.411920E-01    1.148624E-01    2.671459E-01
   4.165693E-01    6.807950E-01   -1.976850E-01    1.239845E-01    2.333485E-01
   5.394704E-01    6.807950E-01   -1.380376E-01    1.235319E-01    1.852418E-01
   6.807950E-01    6.807950E-01   -7.715738E-02    1.194303E-01    1.421860E-01
   8.364541E-01    6.807950E-01   -1.937609E-02    1.163372E-01    1.179397E-01
   9.999997E-01    6.807950E-01    3.551675E-02    1.142019E-01    1.195973E-01
   1.163546E+00    6.807950E-01    8.461630E-02    1.084250E-01    1.375351E-01
   1.319205E+00    6.807950E-01    1.221742E-01    9.577765E-02    1.552414E-01
   1.460529E+00    6.807950E-01    1.453872E-01    7.555795E-02    1.638488E-01
   1.583430E+00    6.807950E-01    1.580216E-01    4.922449E-02    1.655110E-01
   1.686354E+00    6.807950E-01    2.178660E-01    1.232756E-02    2.182145E-01
   1.769847E+00    6.807950E-01    4.710531E-01   -3.890376E-02    4.726569E-01
   1.835838E+00    6.807950E-01    7.948875E-01   -6.852546E-02    7.978357E-01
   1.886929E+00    6.807950E-01    8.733277E-01   -5.870323E-02    8.752984E-01
   1.925850E+00    6.807950E-01    6.960070E-01   -3.346731E-02    6.968112E-01
   1.955138E+00    6.807950E-01    4.433298E-01   -1.363178E-02    4.435393E-01
   1.976973E+00    6.807950E-01    2.252776E-01   -3.683546E-03    2.253077E-01
   1.993137E+00    6.807950E-01    6.310832E-02   -3.206921E-04    6.310913E-02
   2.000000E+00    6.807950E-01    0.000000E+00    0.000000E+00    1.414214E-10
   0.000000E+00    8.364541E-01    0.000000E+00    0.000000E+00    1.414214E-10
   6.863085E-03    8.364541E-01   -1.298114E-02    1.969213E-04    1.298263E-02
   2.302756E-02    8.364541E-01   -4.716067E-02    2.202540E-03    4.721208E-02
   4.486176E-02    8.364541E-01   -9.539352E-02    7.983522E-03    9.572701E-02
   7.414954E-02    8.364541E-01   -1.585171E-01    1.973644E-02    1.597410E-01
   1.130712E-01    8.364541E-01   -2.276020E-01    3.841905E-02    2.308218E-01
   1.641615E-01    8.364541E-01   -2.792165E-01    6.050407E-02    2.856967E-01
   2.301531E-01    8.364541E-01   -2.889010E-01    7.764389E-02    2.991527E-01
   3.136459E-01    8.364541E-01   -2.540776E-01    8.332520E-02    2.673921E-01
   4.165693E-01    8.364541E-01   -1.937476E-01    7.863505E-02    2.090971E-01
   5.394704E-01    8.364541E-01   -1.290292E-01    6.869964E-02    1.461786E-01
   6.807950E-01    8.364541E-01   -7.018952E-02    5.906075E-02    9.173190E-02
   8.364541E-01    8.364541E-01   -1.574943E-02    5.275271E-02    5.505355E-02
   9.999997E-01    8.364541E-01    3.862212E-02    4.968576E-02    6.293126E-02
   1.163546E+00    8.364541E-01    9.148385E-02    4.633083E-02    1.025468E-01
   1.319205E+00    8.364541E-01    1.355454E-01    3.976312E-02    1.412574E-01
   1.460529E+00    8.364541E-01    1.667051E-01    2.915963E-02    1.692361E-01
   1.583430E+00    8.364541E-01    1.931066E-01    1.344208E-02    1.935739E-01
   1.686354E+00    8.364541E-01    2.945171E-01   -2.087868E-02    2.952562E-01
   1.769847E+00    8.364541E-01    5.584757E-01   -6.910275E-02    5.627347E-01
   1.835838E+00    8.364541E-01    7.988217E-01   -8.687057E-02    8.035313E-01
   1.886929E+00    8.364541E-01    7.841011E-01   -6.623860E-02    7.868939E-01
   1.925850E+00    8.364541E-01    5.805100E-01   -3.595753E-02    5.816226E-01
   1.955138E+00    8.364541E-01    3.532761E-01   -1.467587E-02    3.535808E-01
   1.976973E+00    8.364541E-01    1.742645E-01   -4.054133E-03    1.743117E-01
   1.993137E+00    8.364541E-01    4.773856E-02   -3.636813E-04    4.773995E-02
   2.000000E+00    8.364541E-01    0.000000E+00    0.000000E+00    1.414214E-10
   0.000000E+00    9.999997E-01    0.000000E+00    0.000000E+00    1.414214E-10
   6.863085E-03    9.999997E-01   -2.332293E-02    2.345072E-04    2.332411E-02
   2.302756E-02    9.999997E-01   -8.022662E-02    2.484095E-03    8.026507E-02
   4.486176E-02    9.999997E-01   -1.509390E-01    8.479455E-03    1.511770E-01
   7.414954E-02    9.999997E-01   -2.288003E-01    1.924056E-02    2.296079E-01
   1.130712E-01    9.999997E-01   -2.941917E-01    3.316312E-02    2.960550E-01
   1.641615E-01    9.999997E-01   -3.207768E-01    4.445716E-02    3.238429E-01
   2.301531E-01    9.999997E-01   -2.986196E-01    4.670876E-02    3.022505E-01
   3.136459E-01    9.999997E-01   -2.430798E-01    3.895999E-02    2.461822E-01
   4.165693E-01    9.999997E-01   -1.762981E-01    2.541455E-02    1.781205E-01
   5.394704E-01    9.999997E-01   -1.134638E-01    1.082528E-02    1.139790E-01
   6.807950E-01    9.999997E-01   -5.970468E-02   -1.738205E-03    5.972997E-02
   8.364541E-01    9.999997E-01   -9.944986E-03   -1.043352E-02    1.441392E-02
   9.999997E-01    9.999997E-01    4.177510E-02   -1.452027E-02    4.422666E-02
   1.163546E+00    9.999997E-01    9.427673E-02   -1.509197E-02    9.547706E-02
   1.319205E+00    9.999997E-01    1.403214E-01   -1.468282E-02    1.410875E-01
   1.460529E+00    9.999997E-01    1.764013E-01   -1.627661E-02    1.771506E-01
   1.583430E+00    9.999997E-01    2.277855E-01   -3.124088E-02    2.299179E-01
   1.686354E+00    9.999997E-01    3.823195E-01   -7.692575E-02    3.899818E-01
   1.769847E+00    9.999997E-01    6.273798E-01   -1.195303E-01    6.386649E-01
   1.835838E+00    9.999997E-01    7.575520E-01   -1.167584E-01    7.664969E-01
   1.886929E+00    9.999997E-01    6.525086E-01   -7.925985E-02    6.573048E-01