TITLE = "2d Diffusion Data"
VARIABLES = "X", "Y", "T", "QX", "QY", "QMAG"
ZONE T="Zone 1", I=27, J=27, DATAPACKING=POINT, ZONETYPE=ORDERED
   0.000000E+00    0.000000E+00    7.392407E-07    0.000000E+00    0.000000E+00    0.000000E+00
   6.863085E-03    0.000000E+00    7.392407E-07    0.000000E+00    0.000000E+00    0.000000E+00
   2.302756E-02    0.000000E+00    4.213144E-06    0.000000E+00    0.000000E+00    0.000000E+00
   4.486176E-02    0.000000E+00    8.818784E-06    0.000000E+00    0.000000E+00    0.000000E+00
   7.414954E-02    0.000000E+00    1.466500E-05    0.000000E+00    1.398041E-76    0.000000E+00
   1.130712E-01    0.000000E+00    2.143081E-05    0.000000E+00    0.000000E+00    0.000000E+00
   1.641615E-01    0.000000E+00    2.771562E-05    0.000000E+00    7.273055E-43    0.000000E+00
   2.301531E-01    0.000000E+00    3.034315E-05    0.000000E+00    0.000000E+00    0.000000E+00
   3.136459E-01    0.000000E+00    2.559673E-05    0.000000E+00    6.131459E-62    0.000000E+00
   4.165693E-01    0.000000E+00    1.478511E-05    0.000000E+00    0.000000E+00    0.000000E+00
   5.394704E-01    0.000000E+00    5.727869E-06    0.000000E+00    1.398041E-76    0.000000E+00
   6.807950E-01    0.000000E+00    1.878064E-06    0.000000E+00    0.000000E+00    0.000000E+00
   8.364541E-01    0.000000E+00    8.376172E-07    0.000000E+00    3.536652E-57    0.000000E+00
   9.999997E-01    0.000000E+00    8.195937E-07    0.000000E+00    0.000000E+00    0.000000E+00
   1.163546E+00    0.000000E+00    1.639369E-06    0.000000E+00    6.131459E-62    0.000000E+00
   1.319205E+00    0.000000E+00    4.165111E-06    0.000000E+00    0.000000E+00    0.000000E+00
   1.460529E+00    0.000000E+00    9.638636E-06    0.000000E+00    1.398041E-76    0.000000E+00
   1.583430E+00    0.000000E+00    1.812365E-05    0.000000E+00    0.000000E+00    0.000000E+00
   1.686354E+00    0.000000E+00    2.846041E-05    0.000000E+00    4.857843E-33    0.000000E+00
   1.769847E+00    0.000000E+00    4.110260E-05    0.000000E+00    0.000000E+00    0.000000E+00
   1.835838E+00    0.000000E+00    6.177578E-05    0.000000E+00    6.131459E-62    0.000000E+00
   1.886929E+00    0.000000E+00    9.482343E-05    0.000000E+00    0.000000E+00    0.000000E+00
   1.925850E+00    0.000000E+00    2.139681E-03    0.000000E+00    1.398041E-76    0.000000E+00
   1.955138E+00    0.000000E+00    6.448368E-03    0.000000E+00    0.000000E+00    0.000000E+00
   1.976973E+00    0.000000E+00    7.632047E-03    0.000000E+00    5.394603E-62    0.000000E+00
   1.993137E+00    0.000000E+00    2.046114E-03    0.000000E+00    0.000000E+00    0.000000E+00
   2.000000E+00    0.000000E+00    2.046114E-03    0.000000E+00    6.131459E-62    0.000000E+00
   0.000000E+00    6.863085E-03    7.392407E-07    0.000000E+00    0.000000E+00    0.000000E+00
   6.863085E-03    6.863085E-03    7.392409E-07   -2.149097E-06   -2.159407E-06    3.046582E-06
   2.302756E-02    6.863085E-03    4.213145E-06   -3.700408E-06   -1.230705E-05    1.285132E-05
   4.486176E-02    6.863085E-03    8.818785E-06   -3.568676E-06   -2.576024E-05    2.600626E-05
   7.414954E-02    6.863085E-03    1.466501E-05   -3.240365E-06   -4.283512E-05    4.295751E-05
   1.130712E-01    6.863085E-03    2.143081E-05   -2.554417E-06   -6.258845E-05    6.264056E-05
   1.641615E-01    6.863085E-03    2.771562E-05   -1.350527E-06   -8.091818E-05    8.092945E-05
   2.301531E-01    6.863085E-03    3.034315E-05    2.537806E-07   -8.854024E-05    8.854061E-05
   3.136459E-01    6.863085E-03    2.559673E-05    1.511614E-06   -7.463638E-05    7.465169E-05
   4.165693E-01    6.863085E-03    1.478511E-05    1.616654E-06   -4.309892E-05    4.312923E-05
   5.394704E-01    6.863085E-03    5.727869E-06    9.132909E-07   -1.671361E-05    1.673854E-05
   6.807950E-01    6.863085E-03    1.878064E-06    3.141643E-07   -5.492210E-06    5.501188E-06
   8.364541E-01    6.863085E-03    8.376172E-07    6.472021E-08   -2.454099E-06    2.454953E-06
   9.999997E-01    6.863085E-03    8.195937E-07   -4.902310E-08   -2.399134E-06    2.399634E-06
   1.163546E+00    6.863085E-03    1.639369E-06   -2.149253E-07   -4.786718E-06    4.791541E-06
   1.319205E+00    6.863085E-03    4.165111E-06   -5.660213E-07   -1.214297E-05    1.215616E-05
   1.460529E+00    6.863085E-03    9.638636E-06   -1.135755E-06   -2.809301E-05    2.811596E-05
   1.583430E+00    6.863085E-03    1.812365E-05   -1.828715E-06   -5.286085E-05    5.289247E-05
   1.686354E+00    6.863085E-03    2.846041E-05   -2.752201E-06   -8.321189E-05    8.325739E-05
   1.769847E+00    6.863085E-03    4.110260E-05   -5.048434E-06   -1.208594E-04    1.209647E-04
   1.835838E+00    6.863085E-03    6.177578E-05   -1.051494E-05   -1.823740E-04    1.826769E-04
   1.886929E+00    6.863085E-03    9.482343E-05   -5.338708E-04   -2.890146E-04    6.070810E-04
   1.925850E+00    6.863085E-03    2.139681E-03   -2.169334E-03   -6.530153E-03    6.881054E-03
   1.955138E+00    6.863085E-03    6.448368E-03   -2.515453E-03   -2.010594E-02    2.026268E-02
   1.976973E+00    6.863085E-03    7.632047E-03    2.723408E-03   -2.387054E-02    2.402540E-02
   1.993137E+00    6.863085E-03    2.046114E-03    8.139199E-03   -6.502539E-03    1.041775E-02
   2.000000E+00    6.863085E-03    2.046114E-03    0.000000E+00    0.000000E+00    0.000000E+00
   0.000000E+00    2.302756E-02    4.229810E-06    0.000000E+00    4.278559E-33    0.000000E+00
   6.863085E-03    2.302756E-02    4.229810E-06   -1.229674E-05   -3.798034E-06    1.286992E-05
   2.302756E-02    2.302756E-02    2.410685E-05   -2.117278E-05   -2.164583E-05    3.027918E-05
   4.486176E-02    2.302756E-02    5.045888E-05   -2.041770E-05   -4.530493E-05    4.969325E-05
   7.414954E-02    2.302756E-02    8.390575E-05   -1.853543E-05   -7.531910E-05    7.756629E-05
   1.130712E-01    2.302756E-02    1.226018E-04   -1.460351E-05   -1.099901E-04    1.109554E-04
   1.641615E-01    2.302756E-02    1.585156E-04   -7.707360E-06   -1.420248E-04    1.422338E-04
   2.301531E-01    2.302756E-02    1.734638E-04    1.469957E-06   -1.550509E-04    1.550579E-04
   3.136459E-01    2.302756E-02    1.462426E-04    8.648335E-06   -1.303140E-04    1.306007E-04
   4.165693E-01    2.302756E-02    8.445228E-05    9.234899E-06   -7.515447E-05    7.571973E-05
   5.394704E-01    2.302756E-02    3.274454E-05    5.214686E-06   -2.926516E-05    2.972612E-05
   6.807950E-01    2.302756E-02    1.075594E-05    1.794949E-06   -9.710688E-06    9.875186E-06
   8.364541E-01    2.302756E-02    4.804541E-06    3.704330E-07   -4.377224E-06    4.392870E-06
   9.999997E-01    2.302756E-02    4.697668E-06   -2.795736E-07   -4.265191E-06    4.274344E-06
   1.163546E+00    2.302756E-02    9.376850E-06   -1.226775E-06   -8.417664E-06    8.506588E-06
   1.319205E+00    2.302756E-02    2.379359E-05   -3.231759E-06   -2.120486E-05    2.144971E-05
   1.460529E+00    2.302756E-02    5.504952E-05   -6.491149E-06   -4.898184E-05    4.941008E-05
   1.583430E+00    2.302756E-02    1.035705E-04   -1.048532E-05   -9.241801E-05    9.301091E-05
   1.686354E+00    2.302756E-02    1.629681E-04   -1.591690E-05   -1.467992E-04    1.476596E-04
   1.769847E+00    2.302756E-02    2.364655E-04   -2.933798E-05   -2.165737E-04    2.185518E-04
   1.835838E+00    2.302756E-02    3.565738E-04   -6.371794E-05   -3.282514E-04    3.343785E-04
   1.886929E+00    2.302756E-02    5.620004E-04   -3.170165E-03   -5.817697E-04    3.223105E-03
   1.925850E+00    2.302756E-02    1.269533E-02   -1.310659E-02   -1.377104E-02    1.901116E-02
   1.955138E+00    2.302756E-02    3.894857E-02   -1.535286E-02   -4.652270E-02    4.899052E-02
   1.976973E+00    2.302756E-02    4.621754E-02    1.632679E-02   -5.918913E-02    6.139965E-02
   1.993137E+00    2.302756E-02    1.255713E-02    4.904620E-02   -1.620604E-02    5.165429E-02
   2.000000E+00    2.302756E-02    1.255713E-02    0.000000E+00    6.131459E-62    0.000000E+00
   0.000000E+00    4.486176E-02    9.031942E-06    0.000000E+00    0.000000E+00    0.000000E+00
   6.863085E-03    4.486176E-02    9.031943E-06   -2.625704E-05   -3.956365E-06    2.655344E-05
   2.302756E-02    4.486176E-02    5.147508E-05   -4.520730E-05   -2.254778E-05    5.051834E-05
   4.486176E-02    4.486176E-02    1.077384E-04   -4.358238E-05   -4.718587E-05    6.423340E-05
   7.414954E-02    4.486176E-02    1.791182E-04   -3.952738E-05   -7.840055E-05    8.780125E-05
   1.130712E-01    4.486176E-02    2.615854E-04   -3.106206E-05   -1.142995E-04    1.184450E-04
   1.641615E-01    4.486176E-02    3.378154E-04   -1.625950E-05   -1.470234E-04    1.479197E-04
   2.301531E-01    4.486176E-02    3.688844E-04    3.316281E-06   -1.593426E-04    1.593771E-04
   3.136459E-01    4.486176E-02    3.101269E-04    1.846088E-05   -1.325657E-04    1.338450E-04
   4.165693E-01    4.486176E-02    1.788788E-04    1.956864E-05   -7.599636E-05    7.847534E-05
   5.394704E-01    4.486176E-02    6.962599E-05    1.102414E-05   -2.992031E-05    3.188663E-05
   6.807950E-01    4.486176E-02    2.308057E-05    3.805179E-06   -1.024456E-05    1.092842E-05
   8.364541E-01    4.486176E-02    1.039493E-05    7.917226E-07   -4.764510E-06    4.829843E-06
   9.999997E-01    4.486176E-02    1.013230E-05   -5.884424E-07   -4.609111E-06    4.646523E-06
   1.163546E+00    4.486176E-02    2.001866E-05   -2.591035E-06   -8.787818E-06    9.161835E-06
   1.319205E+00    4.486176E-02    5.046421E-05   -6.833060E-06   -2.161026E-05    2.266482E-05
   1.460529E+00    4.486176E-02    1.165865E-04   -1.378725E-05   -4.959192E-05    5.147278E-05
   1.583430E+00    4.486176E-02    2.199109E-04   -2.257969E-05   -9.417773E-05    9.684672E-05
   1.686354E+00    4.486176E-02    3.489846E-04   -3.522008E-05   -1.525135E-04    1.565274E-04
   1.769847E+00    4.486176E-02    5.139739E-04   -6.508438E-05   -2.295298E-04    2.385789E-04
   1.835838E+00    4.486176E-02    7.784863E-04   -1.665878E-04   -3.458847E-04    3.839111E-04
   1.886929E+00    4.486176E-02    1.365071E-03   -8.075010E-03   -8.220539E-04    8.116746E-03
   1.925850E+00    4.486176E-02    3.220764E-02   -3.641828E-02   -2.379231E-02    4.350132E-02
   1.955138E+00    4.486176E-02    1.080269E-01   -4.793291E-02   -1.022881E-01    1.129620E-01
   1.976973E+00    4.486176E-02    1.368667E-01    4.367363E-02   -1.551305E-01    1.611610E-01
   1.993137E+00    4.486176E-02    3.743069E-02    1.448871E-01   -4.240068E-02    1.509639E-01
   2.000000E+00    4.486176E-02    3.743069E-02    0.000000E+00    0.000000E+00    0.000000E+00
   0.000000E+00    7.414954E-02    1.581713E-05    0.000000E+00    5.401250E-62    0.000000E+00
   6.863085E-03    7.414954E-02    1.581713E-05   -4.598180E-05   -4.348855E-06    4.618699E-05
   2.302756E-02    7.414954E-02    9.014431E-05   -7.915964E-05   -2.478397E-05    8.294874E-05
   4.486176E-02    7.414954E-02    1.886558E-04   -7.627046E-05   -5.185304E-05    9.222755E-05
   7.414954E-02    7.414954E-02    3.135236E-04   -6.903714E-05   -8.606584E-05    1.103334E-04
   1.130712E-01    7.414954E-02    4.573595E-04   -5.394185E-05   -1.250840E-04    1.362195E-04
   1.641615E-01    7.414954E-02    5.891146E-04   -2.769801E-05   -1.596871E-04    1.620715E-04
   2.301531E-01    7.414954E-02    6.401430E-04    6.541457E-06   -1.704735E-04    1.705989E-04
   3.136459E-01    7.414954E-02    5.344981E-04    3.236527E-05   -1.386121E-04    1.423405E-04
   4.165693E-01    7.414954E-02    3.070288E-04    3.369565E-05   -7.801977E-05    8.498519E-05
   5.394704E-01    7.414954E-02    1.203745E-04    1.884094E-05   -3.120454E-05    3.645140E-05
   6.807950E-01    7.414954E-02    4.075998E-05    6.528099E-06   -1.137911E-05    1.311870E-05
   8.364541E-01    7.414954E-02    1.875874E-05    1.379630E-06   -5.675921E-06    5.841186E-06
   9.999997E-01    7.414954E-02    1.819673E-05   -1.000068E-06   -5.466539E-06    5.557264E-06
   1.163546E+00    7.414954E-02    3.511442E-05   -4.425591E-06   -9.768612E-06    1.072435E-05
   1.319205E+00    7.414954E-02    8.708526E-05   -1.168791E-05   -2.280283E-05    2.562375E-05
   1.460529E+00    7.414954E-02    2.002933E-04   -2.378426E-05   -5.130527E-05    5.655017E-05
   1.583430E+00    7.414954E-02    3.793962E-04   -3.977256E-05   -9.759069E-05    1.053841E-04
   1.686354E+00    7.414954E-02    6.096464E-04   -6.339586E-05   -1.588246E-04    1.710096E-04
   1.769847E+00    7.414954E-02    9.087072E-04   -1.151583E-04   -2.326238E-04    2.595675E-04
   1.835838E+00    7.414954E-02    1.369593E-03   -4.033875E-04   -3.503611E-04    5.342980E-04
   1.886929E+00    7.414954E-02    2.969614E-03   -2.081321E-02   -1.295383E-03    2.085348E-02
   1.925850E+00    7.414954E-02    8.237772E-02   -1.145718E-01   -5.549928E-02    1.273062E-01
   1.955138E+00    7.414954E-02    3.385276E-01   -1.915238E-01   -3.358199E-01    3.865959E-01
   1.976973E+00    7.414954E-02    5.005605E-01    1.248342E-01   -6.799620E-01    6.913261E-01
   1.993137E+00    7.414954E-02    1.367393E-01    7.293610E-01   -2.491400E-01    7.707387E-01
   2.000000E+00    7.414954E-02    0.000000E+00    0.000000E+00    1.398041E-76    0.000000E+00
   0.000000E+00    1.130712E-01    2.595839E-05    0.000000E+00    0.000000E+00    0.000000E+00
   6.863085E-03    1.130712E-01    2.595839E-05   -7.546169E-05   -5.267611E-06    7.564532E-05
   2.302756E-02    1.130712E-01    1.479383E-04   -1.298882E-04   -3.001770E-05    1.333117E-04
   4.486176E-02    1.130712E-01    3.095589E-04   -1.250221E-04   -6.277154E-05    1.398957E-04
   7.414954E-02    1.130712E-01    5.141004E-04   -1.127584E-04   -1.039953E-04    1.533932E-04
   1.130712E-01    1.130712E-01    7.484328E-04   -8.714815E-05   -1.503339E-04    1.737673E-04
   1.641615E-01    1.130712E-01    9.593437E-04   -4.303006E-05   -1.894331E-04    1.942588E-04
   2.301531E-01    1.130712E-01    1.032395E-03    1.314077E-05   -1.968449E-04    1.972831E-04
   3.136459E-01    1.130712E-01    8.496276E-04    5.342329E-05   -1.532514E-04    1.622961E-04
   4.165693E-01    1.130712E-01    4.825444E-04    5.358357E-05   -8.282035E-05    9.864284E-05
   5.394704E-01    1.130712E-01    1.910791E-04    2.937737E-05   -3.373775E-05    4.473551E-05
   6.807950E-01    1.130712E-01    6.736991E-05    1.018846E-05   -1.370861E-05    1.708012E-05
   8.364541E-01    1.130712E-01    3.248654E-05    2.198834E-06   -7.733484E-06    8.040003E-06
   9.999997E-01    1.130712E-01    3.140895E-05   -1.562446E-06   -7.512456E-06    7.673216E-06
   1.163546E+00    1.130712E-01    5.803968E-05   -6.925859E-06   -1.223508E-05    1.405933E-05
   1.319205E+00    1.130712E-01    1.392165E-04   -1.827251E-05   -2.608586E-05    3.184897E-05
   1.460529E+00    1.130712E-01    3.162750E-04   -3.747188E-05   -5.582900E-05    6.723853E-05
   1.583430E+00    1.130712E-01    5.997497E-04   -6.323926E-05   -1.029662E-04    1.208356E-04
   1.686354E+00    1.130712E-01    9.671555E-04   -9.816797E-05   -1.573595E-04    1.854696E-04
   1.769847E+00    1.130712E-01    1.419384E-03   -1.780521E-04   -1.992632E-04    2.672235E-04
   1.835838E+00    1.130712E-01    2.142148E-03   -9.762238E-04   -3.120060E-04    1.024871E-03
   1.886929E+00    1.130712E-01    6.406911E-03   -6.322409E-02   -1.983113E-03    6.325519E-02
   1.925850E+00    1.130712E-01    2.482198E-01   -4.809770E-01   -1.462160E-01    5.027106E-01
   1.955138E+00    1.130712E-01    1.415092E+00   -1.161084E+00   -1.368617E+00    1.794778E+00
   1.976973E+00    1.130712E-01    2.783389E+00    2.523855E-01   -4.913680E+00    4.920158E+00
   1.993137E+00    1.130712E-01    1.007124E+00    4.055645E+00   -8.891340E+00    9.772624E+00
   2.000000E+00    1.130712E-01    0.000000E+00    0.000000E+00    0.000000E+00    0.000000E+00
   0.000000E+00    1.641615E-01    4.272955E-05    0.000000E+00    4.014579E-57    0.000000E+00
   6.863085E-03    1.641615E-01    4.272956E-05   -1.242084E-04   -7.418059E-06    1.244297E-04
   2.302756E-02    1.641615E-01    2.435059E-04   -2.137145E-04   -4.226373E-05    2.178535E-04
   4.486176E-02    1.641615E-01    5.093581E-04   -2.053189E-04   -8.827980E-05    2.234931E-04
   7.414954E-02    1.641615E-01    8.448395E-04   -1.839757E-04   -1.457491E-04    2.347123E-04
   1.130712E-01    1.641615E-01    1.225421E-03   -1.393797E-04   -2.087895E-04    2.510373E-04
   1.641615E-01    1.641615E-01    1.556936E-03   -6.370667E-05   -2.575828E-04    2.653440E-04
   2.301531E-01    1.641615E-01    1.645831E-03    2.868155E-05   -2.563876E-04    2.579869E-04
   3.136459E-01    1.641615E-01    1.317465E-03    8.896622E-05   -1.863808E-04    2.065255E-04
   4.165693E-01    1.641615E-01    7.301612E-04    8.337781E-05   -9.477917E-05    1.262337E-04
   5.394704E-01    1.641615E-01    2.927420E-04    4.382559E-05   -4.002691E-05    5.935348E-05
   6.807950E-01    1.641615E-01    1.107978E-04    1.506321E-05   -1.932209E-05    2.449987E-05
   8.364541E-01    1.641615E-01    5.826941E-05    3.315261E-06   -1.288929E-05    1.330882E-05
   9.999997E-01    1.641615E-01    5.657816E-05   -2.406329E-06   -1.278711E-05    1.301156E-05
   1.163546E+00    1.641615E-01    9.762390E-05   -1.052173E-05   -1.870326E-05    2.145970E-05
   1.319205E+00    1.641615E-01    2.203589E-04   -2.744760E-05   -3.501359E-05    4.448958E-05
   1.460529E+00    1.641615E-01    4.855258E-04   -5.574367E-05   -6.776080E-05    8.774328E-05
   1.583430E+00    1.641615E-01    9.054542E-04   -9.017146E-05   -1.127529E-04    1.443749E-04
   1.686354E+00    1.641615E-01    1.413602E-03   -1.223212E-04   -1.416157E-04    1.871296E-04
   1.769847E+00    1.641615E-01    1.926751E-03   -2.348851E-04   -1.186120E-04    2.631346E-04
   1.835838E+00    1.641615E-01    2.963644E-03   -2.187251E-03   -1.700345E-04    2.193850E-03
   1.886929E+00    1.641615E-01    1.310142E-02   -2.123343E-01   -1.896656E-03    2.123428E-01
   1.925850E+00    1.641615E-01    8.294008E-01   -2.498547E+00   -1.795603E-01    2.504991E+00
   1.955138E+00    1.641615E-01    7.330847E+00   -1.134688E+01   -1.451200E+00    1.143930E+01
   1.976973E+00    1.641615E-01    2.560474E+01   -2.365189E+01   -4.299315E+00    2.403947E+01
   1.993137E+00    1.641615E-01    4.556294E+01   -3.554605E+01   -7.036791E+00    3.623587E+01
   2.000000E+00    1.641615E-01    5.000000E+01    0.000000E+00    1.398041E-76    0.000000E+00
   0.000000E+00    2.301531E-01    7.491131E-05    0.000000E+00    0.000000E+00    0.000000E+00
   6.863085E-03    2.301531E-01    7.491131E-05   -2.177193E-04   -1.265376E-05    2.180867E-04
   2.302756E-02    2.301531E-01    4.268432E-04   -3.742843E-04   -7.206768E-05    3.811594E-04
   4.486176E-02    2.301531E-01    8.921310E-04   -3.581966E-04   -1.502267E-04    3.884235E-04
   7.414954E-02    2.301531E-01    1.475922E-03   -3.170824E-04   -2.465628E-04    4.016646E-04
   1.130712E-01    2.301531E-01    2.126267E-03   -2.315995E-04   -3.481027E-04    4.181074E-04
   1.641615E-01    2.301531E-01    2.659172E-03   -9.062818E-05   -4.158728E-04    4.256333E-04
   2.301531E-01    2.301531E-01    2.724337E-03    6.941784E-05   -3.894337E-04    3.955723E-04
   3.136459E-01    2.301531E-01    2.079583E-03    1.570421E-04   -2.601253E-04    3.038542E-04
   4.165693E-01    2.301531E-01    1.108007E-03    1.321680E-04   -1.268780E-04    1.832113E-04
   5.394704E-01    2.301531E-01    4.552229E-04    6.461207E-05   -6.041256E-05    8.845562E-05
   6.807950E-01    2.301531E-01    1.948794E-04    2.169343E-05   -3.696031E-05    4.285639E-05
   8.364541E-01    2.301531E-01    1.175450E-04    4.835736E-06   -2.909642E-05    2.949553E-05
   9.999997E-01    2.301531E-01    1.157931E-04   -3.908412E-06   -2.922501E-05    2.948519E-05
   1.163546E+00    2.301531E-01    1.814654E-04   -1.634874E-05   -3.815607E-05    4.151105E-05
   1.319205E+00    2.301531E-01    3.702767E-04   -4.117995E-05   -6.096199E-05    7.356733E-05
   1.460529E+00    2.301531E-01    7.634390E-04   -7.921391E-05   -1.013739E-04    1.286527E-04
   1.583430E+00    2.301531E-01    1.343824E-03   -1.105928E-04   -1.428577E-04    1.806630E-04
   1.686354E+00    2.301531E-01    1.901699E-03   -1.027989E-04   -1.375878E-04    1.717498E-04
   1.769847E+00    2.301531E-01    2.202122E-03   -2.064710E-04   -6.912450E-05    2.177349E-04
   1.835838E+00    2.301531E-01    3.264233E-03   -3.272874E-03   -1.199731E-04    3.275072E-03
   1.886929E+00    2.301531E-01    1.892324E-02   -3.673810E-01   -2.892385E-03    3.673924E-01
   1.925850E+00    2.301531E-01    1.433166E+00   -3.746538E+00   -1.838978E-01    3.751049E+00
   1.955138E+00    2.301531E-01    1.099178E+01   -1.361243E+01   -8.657249E-01    1.363993E+01
   1.976973E+00    2.301531E-01    3.115523E+01   -2.255079E+01   -1.063195E+00    2.257583E+01
   1.993137E+00    2.301531E-01    4.744400E+01   -2.745850E+01   -2.955204E-01    2.746009E+01
   2.000000E+00    2.301531E-01    5.000000E+01    0.000000E+00    0.000000E+00    0.000000E+00
   0.000000E+00    3.136459E-01    1.483794E-04    0.000000E+00    4.278559E-33    0.000000E+00
   6.863085E-03    3.136459E-01    1.483794E-04   -4.310932E-04   -2.645322E-05    4.319041E-04
   2.302756E-02    3.136459E-01    8.452191E-04   -7.397861E-04   -1.505809E-04    7.549557E-04
   4.486176E-02    3.136459E-01    1.763643E-03   -7.027648E-04   -3.129038E-04    7.692770E-04
   7.414954E-02    3.136459E-01    2.903461E-03   -6.084498E-04   -5.088708E-04    7.931965E-04
   1.130712E-01    3.136459E-01    4.131828E-03   -4.160690E-04   -7.027411E-04    8.166753E-04
   1.641615E-01    3.136459E-01    5.029174E-03   -1.159988E-04   -8.020880E-04    8.104325E-04
   2.301531E-01    3.136459E-01    4.897322E-03    1.844291E-04   -6.970485E-04    7.210345E-04
   3.136459E-01    3.136459E-01    3.489324E-03    3.019549E-04   -4.362623E-04    5.305672E-04
   4.165693E-01    3.136459E-01    1.789501E-03    2.190524E-04   -2.266766E-04    3.152242E-04
   5.394704E-01    3.136459E-01    7.971433E-04    9.694781E-05   -1.390516E-04    1.695117E-04
   6.807950E-01    3.136459E-01    4.193898E-04    3.186064E-05   -1.085859E-04    1.131636E-04
   8.364541E-01    3.136459E-01    3.012036E-04    7.264265E-06   -9.642759E-05    9.670082E-05
   9.999997E-01    3.136459E-01    3.005859E-04   -7.031429E-06   -9.568833E-05    9.594632E-05
   1.163546E+00    3.136459E-01    4.161997E-04   -2.754485E-05   -1.106216E-04    1.139994E-04
   1.319205E+00    3.136459E-01    7.293477E-04   -6.479595E-05   -1.481806E-04    1.617282E-04
   1.460529E+00    3.136459E-01    1.331925E-03   -1.113795E-04   -2.061056E-04    2.342753E-04
   1.583430E+00    3.136459E-01    2.098213E-03   -1.195486E-04   -2.467957E-04    2.742262E-04
   1.686354E+00    3.136459E-01    2.562361E-03   -4.858816E-05   -2.045842E-04    2.102748E-04
   1.769847E+00    3.136459E-01    2.503890E-03   -2.125989E-04   -1.040299E-04    2.366865E-04
   1.835838E+00    3.136459E-01    3.965333E-03   -6.801108E-03   -2.079323E-04    6.804286E-03
   1.886929E+00    3.136459E-01    3.725075E-02   -6.065669E-01   -8.176251E-03    6.066220E-01
   1.925850E+00    3.136459E-01    2.364815E+00   -4.958268E+00   -2.280725E-01    4.963511E+00
   1.955138E+00    3.136459E-01    1.455903E+01   -1.470922E+01   -6.956078E-01    1.472566E+01
   1.976973E+00    3.136459E-01    3.448166E+01   -2.070667E+01   -5.702292E-01    2.071452E+01
   1.993137E+00    3.136459E-01    4.803032E+01   -2.261160E+01   -9.397648E-02    2.261180E+01
   2.000000E+00    3.136459E-01    5.000000E+01    0.000000E+00    1.398041E-76    0.000000E+00
   0.000000E+00    4.165693E-01    3.471767E-04    0.000000E+00    0.000000E+00    0.000000E+00
   6.863085E-03    4.165693E-01    3.471767E-04   -1.008072E-03   -6.695020E-05    1.010292E-03
   2.302756E-02    4.165693E-01    1.976672E-03   -1.724572E-03   -3.807731E-04    1.766108E-03
   4.486176E-02    4.165693E-01    4.112641E-03   -1.617302E-03   -7.871340E-04    1.798679E-03
   7.414954E-02    4.165693E-01    6.713390E-03   -1.347959E-03   -1.261335E-03    1.846066E-03
   1.130712E-01    4.165693E-01    9.359114E-03   -8.222957E-04   -1.684209E-03    1.874228E-03
   1.641615E-01    4.165693E-01    1.091453E-02   -8.174969E-05   -1.806917E-03    1.808765E-03
   2.301531E-01    4.165693E-01    9.898593E-03    5.203789E-04   -1.463714E-03    1.553465E-03
   3.136459E-01    4.165693E-01    6.569741E-03    6.274139E-04   -9.294552E-04    1.121399E-03
   4.165693E-01    4.165693E-01    3.441039E-03    3.810665E-04   -6.016795E-04    7.122007E-04
   5.394704E-01    4.165693E-01    1.886388E-03    1.506148E-04   -4.919914E-04    5.145292E-04
   6.807950E-01    4.165693E-01    1.312482E-03    4.987686E-05   -4.581338E-04    4.608408E-04
   8.364541E-01    4.165693E-01    1.110010E-03    1.295248E-05   -4.346528E-04    4.348458E-04
   9.999997E-01    4.165693E-01    1.100649E-03   -1.284108E-05   -4.163320E-04    4.165300E-04
   1.163546E+00    4.165693E-01    1.320020E-03   -5.105705E-05   -4.248648E-04    4.279217E-04
   1.319205E+00    4.165693E-01    1.895401E-03   -1.107187E-04   -4.745773E-04    4.873215E-04
   1.460529E+00    4.165693E-01    2.884747E-03   -1.617991E-04   -5.479705E-04    5.713586E-04
   1.583430E+00    4.165693E-01    3.883928E-03   -1.090715E-04   -5.694754E-04    5.798265E-04
   1.686354E+00    4.165693E-01    4.007348E-03    7.319117E-05   -4.402609E-04    4.463033E-04
   1.769847E+00    4.165693E-01    3.272833E-03   -2.116929E-04   -2.249675E-04    3.089082E-04
   1.835838E+00    4.165693E-01    5.404341E-03   -1.953476E-02   -1.612346E-04    1.953543E-02
   1.886929E+00    4.165693E-01    1.030759E-01   -9.699422E-01   -1.995468E-02    9.701475E-01
   1.925850E+00    4.165693E-01    3.780565E+00   -6.162297E+00   -2.696505E-01    6.168194E+00
   1.955138E+00    4.165693E-01    1.815121E+01   -1.522529E+01   -5.689008E-01    1.523591E+01
   1.976973E+00    4.165693E-01    3.702422E+01   -1.872005E+01   -3.695873E-01    1.872370E+01
   1.993137E+00    4.165693E-01    4.841124E+01   -1.890686E+01   -5.408927E-02    1.890694E+01
   2.000000E+00    4.165693E-01    5.000000E+01    0.000000E+00    0.000000E+00    0.000000E+00
   0.000000E+00    5.394704E-01    9.712054E-04    0.000000E+00    2.215822E-52    0.000000E+00
   6.863085E-03    5.394704E-01    9.712054E-04   -2.817140E-03   -1.959703E-04    2.823948E-03
   2.302756E-02    5.394704E-01    5.524966E-03   -4.793586E-03   -1.112676E-03    4.921027E-03
   4.486176E-02    5.394704E-01    1.143761E-02   -4.397893E-03   -2.278312E-03    4.952996E-03
   7.414954E-02    5.394704E-01    1.840542E-02   -3.441108E-03   -3.561396E-03    4.952248E-03
   1.130712E-01    5.394704E-01    2.483096E-02   -1.728501E-03   -4.527896E-03    4.846603E-03
   1.641615E-01    5.394704E-01    2.723640E-02    2.946462E-04   -4.546147E-03    4.555686E-03
   2.301531E-01    5.394704E-01    2.288655E-02    1.476051E-03   -3.591846E-03    3.883308E-03
   3.136459E-01    5.394704E-01    1.491244E-02    1.331314E-03   -2.596552E-03    2.917958E-03
   4.165693E-01    5.394704E-01    9.184214E-03    6.565162E-04   -2.166045E-03    2.263352E-03
   5.394704E-01    5.394704E-01    6.843777E-03    2.217806E-04   -2.092435E-03    2.104155E-03
   6.807950E-01    5.394704E-01    6.049909E-03    7.713253E-05   -2.071175E-03    2.072611E-03
   8.364541E-01    5.394704E-01    5.643139E-03    3.867743E-05   -1.955621E-03    1.956003E-03
   9.999997E-01    5.394704E-01    5.417356E-03    3.240243E-07   -1.763495E-03    1.763495E-03
   1.163546E+00    5.394704E-01    5.637840E-03   -7.353246E-05   -1.604095E-03    1.605779E-03
   1.319205E+00    5.394704E-01    6.561959E-03   -1.718533E-04   -1.529626E-03    1.539249E-03
   1.460529E+00    5.394704E-01    8.066548E-03   -2.062778E-04   -1.495220E-03    1.509382E-03
   1.583430E+00    5.394704E-01    9.097134E-03    9.067703E-06   -1.370343E-03    1.370373E-03
   1.686354E+00    5.394704E-01    7.973220E-03    4.585254E-04   -1.007708E-03    1.107122E-03
   1.769847E+00    5.394704E-01    5.268768E-03    3.070540E-04   -5.694820E-04    6.469867E-04
   1.835838E+00    5.394704E-01    5.946925E-03   -5.426255E-02   -2.152299E-04    5.426298E-02
   1.886929E+00    5.394704E-01    2.824962E-01   -1.457525E+00   -4.246010E-02    1.458143E+00
   1.925850E+00    5.394704E-01    5.678851E+00   -7.261810E+00   -3.124281E-01    7.268528E+00
   1.955138E+00    5.394704E-01    2.155089E+01   -1.527174E+01   -4.849942E-01    1.527944E+01
   1.976973E+00    5.394704E-01    3.902393E+01   -1.679248E+01   -2.707156E-01    1.679466E+01
   1.993137E+00    5.394704E-01    4.869509E+01   -1.599311E+01   -3.865871E-02    1.599316E+01
   2.000000E+00    5.394704E-01    5.000000E+01    0.000000E+00    1.589007E-47    0.000000E+00
   0.000000E+00    6.807950E-01    3.116719E-03    0.000000E+00    0.000000E+00    0.000000E+00
   6.863085E-03    6.807950E-01    3.116719E-03   -9.022751E-03   -6.015523E-04    9.042782E-03
   2.302756E-02    6.807950E-01    1.770153E-02   -1.520279E-02   -3.405079E-03    1.557946E-02
   4.486176E-02    6.807950E-01    3.631079E-02   -1.343330E-02   -6.863204E-03    1.508499E-02
   7.414954E-02    6.807950E-01    5.704467E-02   -9.516210E-03   -1.034782E-02    1.405830E-02
   1.130712E-01    6.807950E-01    7.334942E-02   -3.546285E-03   -1.241649E-02    1.291299E-02
   1.641615E-01    6.807950E-01    7.516278E-02    1.922854E-03   -1.184562E-02    1.200067E-02
   2.301531E-01    6.807950E-01    6.066021E-02    3.820374E-03   -9.683850E-03    1.041020E-02
   3.136459E-01    6.807950E-01    4.326540E-02    2.585189E-03   -8.163992E-03    8.563526E-03
   4.165693E-01    6.807950E-01    3.405258E-02    9.607527E-04   -7.743948E-03    7.803318E-03
   5.394704E-01    6.807950E-01    3.145764E-02    2.454843E-04   -7.663240E-03    7.667171E-03
   6.807950E-01    6.807950E-01    3.058328E-02    1.740917E-04   -7.292730E-03    7.294807E-03
   8.364541E-01    6.807950E-01    2.874774E-02    2.788281E-04   -6.432703E-03    6.438744E-03
   9.999997E-01    6.807950E-01    2.602317E-02    2.909228E-04   -5.341067E-03    5.348984E-03