TITLE = "Convection Diffusion Initial Conditions"
VARIABLES = "X", "Y", "Pe"
ZONE T="Zone 1", I=27, J=27, DATAPACKING=POINT, ZONETYPE=ORDERED
   0.000000E+00    0.000000E+00    0.000000E+00
   6.863085E-03    0.000000E+00    0.000000E+00
   2.302756E-02    0.000000E+00    0.000000E+00
   4.486176E-02    0.000000E+00    0.000000E+00
   7.414954E-02    0.000000E+00    0.000000E+00
   1.130712E-01    0.000000E+00    0.000000E+00
   1.641615E-01    0.000000E+00    0.000000E+00
   2.301531E-01    0.000000E+00    0.000000E+00
   3.136459E-01    0.000000E+00    0.000000E+00
   4.165693E-01    0.000000E+00    0.000000E+00
   5.394704E-01    0.000000E+00    0.000000E+00
   6.807950E-01    0.000000E+00    0.000000E+00
   8.364541E-01    0.000000E+00    0.000000E+00
   9.999997E-01    0.000000E+00    0.000000E+00
   1.163546E+00    0.000000E+00    0.000000E+00
   1.319205E+00    0.000000E+00    0.000000E+00
   1.460529E+00    0.000000E+00    0.000000E+00
   1.583430E+00    0.000000E+00    0.000000E+00
   1.686354E+00    0.000000E+00    0.000000E+00
   1.769847E+00    0.000000E+00    0.000000E+00
   1.835838E+00    0.000000E+00    0.000000E+00
   1.886929E+00    0.000000E+00    0.000000E+00
   1.925850E+00    0.000000E+00    0.000000E+00
   1.955138E+00    0.000000E+00    0.000000E+00
   1.976973E+00    0.000000E+00    0.000000E+00
   1.993137E+00    0.000000E+00    0.000000E+00
   2.000000E+00    0.000000E+00    0.000000E+00
   0.000000E+00    6.863085E-03    0.000000E+00
   6.863085E-03    6.863085E-03    0.000000E+00
   2.302756E-02    6.863085E-03    0.000000E+00
   4.486176E-02    6.863085E-03    0.000000E+00
   7.414954E-02    6.863085E-03    0.000000E+00
   1.130712E-01    6.863085E-03    0.000000E+00
   1.641615E-01    6.863085E-03    0.000000E+00
   2.301531E-01    6.863085E-03    0.000000E+00
   3.136459E-01    6.863085E-03    0.000000E+00
   4.165693E-01    6.863085E-03    0.000000E+00
   5.394704E-01    6.863085E-03    0.000000E+00
   6.807950E-01    6.863085E-03    0.000000E+00
   8.364541E-01    6.863085E-03    0.000000E+00
   9.999997E-01    6.863085E-03    0.000000E+00
   1.163546E+00    6.863085E-03    0.000000E+00
   1.319205E+00    6.863085E-03    0.000000E+00
   1.460529E+00    6.863085E-03    0.000000E+00
   1.583430E+00    6.863085E-03    0.000000E+00
   1.686354E+00    6.863085E-03    0.000000E+00
   1.769847E+00    6.863085E-03    0.000000E+00
   1.835838E+00    6.863085E-03    0.000000E+00
   1.886929E+00    6.863085E-03    0.000000E+00
   1.925850E+00    6.863085E-03    0.000000E+00
   1.955138E+00    6.863085E-03    0.000000E+00
   1.976973E+00    6.863085E-03    0.000000E+00
   1.993137E+00    6.863085E-03    0.000000E+00
   2.000000E+00    6.863085E-03    0.000000E+00
   0.000000E+00    2.302756E-02    0.000000E+00
   6.863085E-03    2.302756E-02    0.000000E+00
   2.302756E-02    2.302756E-02    0.000000E+00
   4.486176E-02    2.302756E-02    0.000000E+00
   7.414954E-02    2.302756E-02    0.000000E+00
   1.130712E-01    2.302756E-02    0.000000E+00
   1.641615E-01    2.302756E-02    0.000000E+00
   2.301531E-01    2.302756E-02    0.000000E+00
   3.136459E-01    2.302756E-02    0.000000E+00
   4.165693E-01    2.302756E-02    0.000000E+00
   5.394704E-01    2.302756E-02    0.000000E+00
   6.807950E-01    2.302756E-02    0.000000E+00
   8.364541E-01    2.302756E-02    0.000000E+00
   9.999997E-01    2.302756E-02    0.000000E+00
   1.163546E+00    2.302756E-02    0.000000E+00
   1.319205E+00    2.302756E-02    0.000000E+00
   1.460529E+00    2.302756E-02    0.000000E+00
   1.583430E+00    2.302756E-02    0.000000E+00
   1.686354E+00    2.302756E-02    0.000000E+00
   1.769847E+00    2.302756E-02    0.000000E+00
   1.835838E+00    2.302756E-02    0.000000E+00
   1.886929E+00    2.302756E-02    0.000000E+00
   1.925850E+00    2.302756E-02    0.000000E+00
   1.955138E+00    2.302756E-02    0.000000E+00
   1.976973E+00    2.302756E-02    0.000000E+00
   1.993137E+00    2.302756E-02    0.000000E+00
   2.000000E+00    2.302756E-02    0.000000E+00
   0.000000E+00    4.486176E-02    0.000000E+00
   6.863085E-03    4.486176E-02    0.000000E+00
   2.302756E-02    4.486176E-02    0.000000E+00
   4.486176E-02    4.486176E-02    0.000000E+00
   7.414954E-02    4.486176E-02    0.000000E+00
   1.130712E-01    4.486176E-02    0.000000E+00
   1.641615E-01    4.486176E-02    0.000000E+00
   2.301531E-01    4.486176E-02    0.000000E+00
   3.136459E-01    4.486176E-02    0.000000E+00
   4.165693E-01    4.486176E-02    0.000000E+00
   5.394704E-01    4.486176E-02    0.000000E+00
   6.807950E-01    4.486176E-02    0.000000E+00
   8.364541E-01    4.486176E-02    0.000000E+00
   9.999997E-01    4.486176E-02    0.000000E+00
   1.163546E+00    4.486176E-02    0.000000E+00
   1.319205E+00    4.486176E-02    0.000000E+00
   1.460529E+00    4.486176E-02    0.000000E+00
   1.583430E+00    4.486176E-02    0.000000E+00
   1.686354E+00    4.486176E-02    0.000000E+00
   1.769847E+00    4.486176E-02    0.000000E+00
   1.835838E+00    4.486176E-02    0.000000E+00
   1.886929E+00    4.486176E-02    0.000000E+00
   1.925850E+00    4.486176E-02    0.000000E+00
   1.955138E+00    4.486176E-02    0.000000E+00
   1.976973E+00    4.486176E-02    0.000000E+00
   1.993137E+00    4.486176E-02    0.000000E+00
   2.000000E+00    4.486176E-02    0.000000E+00
   0.000000E+00    7.414954E-02    0.000000E+00
   6.863085E-03    7.414954E-02    0.000000E+00
   2.302756E-02    7.414954E-02    0.000000E+00
   4.486176E-02    7.414954E-02    0.000000E+00
   7.414954E-02    7.414954E-02    0.000000E+00
   1.130712E-01    7.414954E-02    0.000000E+00
   1.641615E-01    7.414954E-02    0.000000E+00
   2.301531E-01    7.414954E-02    0.000000E+00
   3.136459E-01    7.414954E-02    0.000000E+00
   4.165693E-01    7.414954E-02    0.000000E+00
   5.394704E-01    7.414954E-02    0.000000E+00
   6.807950E-01    7.414954E-02    0.000000E+00
   8.364541E-01    7.414954E-02    0.000000E+00
   9.999997E-01    7.414954E-02    0.000000E+00
   1.163546E+00    7.414954E-02    0.000000E+00
   1.319205E+00    7.414954E-02    0.000000E+00
   1.460529E+00    7.414954E-02    0.000000E+00
   1.583430E+00    7.414954E-02    0.000000E+00
   1.686354E+00    7.414954E-02    0.000000E+00
   1.769847E+00    7.414954E-02    0.000000E+00
   1.835838E+00    7.414954E-02    0.000000E+00
   1.886929E+00    7.414954E-02    0.000000E+00
   1.925850E+00    7.414954E-02    0.000000E+00
   1.955138E+00    7.414954E-02    0.000000E+00
   1.976973E+00    7.414954E-02    0.000000E+00
   1.993137E+00    7.414954E-02    0.000000E+00
   2.000000E+00    7.414954E-02    0.000000E+00
   0.000000E+00    1.130712E-01    0.000000E+00
   6.863085E-03    1.130712E-01    0.000000E+00
   2.302756E-02    1.130712E-01    0.000000E+00
   4.486176E-02    1.130712E-01    0.000000E+00
   7.414954E-02    1.130712E-01    0.000000E+00
   1.130712E-01    1.130712E-01    0.000000E+00
   1.641615E-01    1.130712E-01    0.000000E+00
   2.301531E-01    1.130712E-01    0.000000E+00
   3.136459E-01    1.130712E-01    0.000000E+00
   4.165693E-01    1.130712E-01    0.000000E+00
   5.394704E-01    1.130712E-01    0.000000E+00
   6.807950E-01    1.130712E-01    0.000000E+00
   8.364541E-01    1.130712E-01    0.000000E+00
   9.999997E-01    1.130712E-01    0.000000E+00
   1.163546E+00    1.130712E-01    0.000000E+00
   1.319205E+00    1.130712E-01    0.000000E+00
   1.460529E+00    1.130712E-01    0.000000E+00
   1.583430E+00    1.130712E-01    0.000000E+00
   1.686354E+00    1.130712E-01    0.000000E+00
   1.769847E+00    1.130712E-01    0.000000E+00
   1.835838E+00    1.130712E-01    0.000000E+00
   1.886929E+00    1.130712E-01    0.000000E+00
   1.925850E+00    1.130712E-01    0.000000E+00
   1.955138E+00    1.130712E-01    0.000000E+00
   1.976973E+00    1.130712E-01    0.000000E+00
   1.993137E+00    1.130712E-01    0.000000E+00
   2.000000E+00    1.130712E-01    0.000000E+00
   0.000000E+00    1.641615E-01    0.000000E+00
   6.863085E-03    1.641615E-01    0.000000E+00
   2.302756E-02    1.641615E-01    0.000000E+00
   4.486176E-02    1.641615E-01    0.000000E+00
   7.414954E-02    1.641615E-01    0.000000E+00
   1.130712E-01    1.641615E-01    0.000000E+00
   1.641615E-01    1.641615E-01    0.000000E+00
   2.301531E-01    1.641615E-01    0.000000E+00
   3.136459E-01    1.641615E-01    0.000000E+00
   4.165693E-01    1.641615E-01    0.000000E+00
   5.394704E-01    1.641615E-01    0.000000E+00
   6.807950E-01    1.641615E-01    0.000000E+00
   8.364541E-01    1.641615E-01    0.000000E+00
   9.999997E-01    1.641615E-01    0.000000E+00
   1.163546E+00    1.641615E-01    0.000000E+00
   1.319205E+00    1.641615E-01    0.000000E+00
   1.460529E+00    1.641615E-01    0.000000E+00
   1.583430E+00    1.641615E-01    0.000000E+00
   1.686354E+00    1.641615E-01    0.000000E+00
   1.769847E+00    1.641615E-01    0.000000E+00
   1.835838E+00    1.641615E-01    0.000000E+00
   1.886929E+00    1.641615E-01    0.000000E+00
   1.925850E+00    1.641615E-01    0.000000E+00
   1.955138E+00    1.641615E-01    0.000000E+00
   1.976973E+00    1.641615E-01    0.000000E+00
   1.993137E+00    1.641615E-01    0.000000E+00
   2.000000E+00    1.641615E-01    0.000000E+00
   0.000000E+00    2.301531E-01    0.000000E+00
   6.863085E-03    2.301531E-01    0.000000E+00
   2.302756E-02    2.301531E-01    0.000000E+00
   4.486176E-02    2.301531E-01    0.000000E+00
   7.414954E-02    2.301531E-01    0.000000E+00
   1.130712E-01    2.301531E-01    0.000000E+00
   1.641615E-01    2.301531E-01    0.000000E+00
   2.301531E-01    2.301531E-01    0.000000E+00
   3.136459E-01    2.301531E-01    0.000000E+00
   4.165693E-01    2.301531E-01    0.000000E+00
   5.394704E-01    2.301531E-01    0.000000E+00
   6.807950E-01    2.301531E-01    0.000000E+00
   8.364541E-01    2.301531E-01    0.000000E+00
   9.999997E-01    2.301531E-01    0.000000E+00
   1.163546E+00    2.301531E-01    0.000000E+00
   1.319205E+00    2.301531E-01    0.000000E+00
   1.460529E+00    2.301531E-01    0.000000E+00
   1.583430E+00    2.301531E-01    0.000000E+00
   1.686354E+00    2.301531E-01    0.000000E+00
   1.769847E+00    2.301531E-01    0.000000E+00
   1.835838E+00    2.301531E-01    0.000000E+00
   1.886929E+00    2.301531E-01    0.000000E+00
   1.925850E+00    2.301531E-01    0.000000E+00
   1.955138E+00    2.301531E-01    0.000000E+00
   1.976973E+00    2.301531E-01    0.000000E+00
   1.993137E+00    2.301531E-01    0.000000E+00
   2.000000E+00    2.301531E-01    0.000000E+00
   0.000000E+00    3.136459E-01    0.000000E+00
   6.863085E-03    3.136459E-01    0.000000E+00
   2.302756E-02    3.136459E-01    0.000000E+00
   4.486176E-02    3.136459E-01    0.000000E+00
   7.414954E-02    3.136459E-01    0.000000E+00
   1.130712E-01    3.136459E-01    0.000000E+00
   1.641615E-01    3.136459E-01    0.000000E+00
   2.301531E-01    3.136459E-01    0.000000E+00
   3.136459E-01    3.136459E-01    0.000000E+00
   4.165693E-01    3.136459E-01    0.000000E+00
   5.394704E-01    3.136459E-01    0.000000E+00
   6.807950E-01    3.136459E-01    0.000000E+00
   8.364541E-01    3.136459E-01    0.000000E+00
   9.999997E-01    3.136459E-01    0.000000E+00
   1.163546E+00    3.136459E-01    0.000000E+00
   1.319205E+00    3.136459E-01    0.000000E+00
   1.460529E+00    3.136459E-01    0.000000E+00
   1.583430E+00    3.136459E-01    0.000000E+00
   1.686354E+00    3.136459E-01    0.000000E+00
   1.769847E+00    3.136459E-01    0.000000E+00
   1.835838E+00    3.136459E-01    0.000000E+00
   1.886929E+00    3.136459E-01    0.000000E+00
   1.925850E+00    3.136459E-01    0.000000E+00
   1.955138E+00    3.136459E-01    0.000000E+00
   1.976973E+00    3.136459E-01    0.000000E+00
   1.993137E+00    3.136459E-01    0.000000E+00
   2.000000E+00    3.136459E-01    0.000000E+00
   0.000000E+00    4.165693E-01    0.000000E+00
   6.863085E-03    4.165693E-01    0.000000E+00
   2.302756E-02    4.165693E-01    0.000000E+00
   4.486176E-02    4.165693E-01    0.000000E+00
   7.414954E-02    4.165693E-01    0.000000E+00
   1.130712E-01    4.165693E-01    0.000000E+00
   1.641615E-01    4.165693E-01    0.000000E+00
   2.301531E-01    4.165693E-01    0.000000E+00
   3.136459E-01    4.165693E-01    0.000000E+00
   4.165693E-01    4.165693E-01    0.000000E+00
   5.394704E-01    4.165693E-01    0.000000E+00
   6.807950E-01    4.165693E-01    0.000000E+00
   8.364541E-01    4.165693E-01    0.000000E+00
   9.999997E-01    4.165693E-01    0.000000E+00
   1.163546E+00    4.165693E-01    0.000000E+00
   1.319205E+00    4.165693E-01    0.000000E+00
   1.460529E+00    4.165693E-01    0.000000E+00
   1.583430E+00    4.165693E-01    0.000000E+00
   1.686354E+00    4.165693E-01    0.000000E+00
   1.769847E+00    4.165693E-01    0.000000E+00
   1.835838E+00    4.165693E-01    0.000000E+00
   1.886929E+00    4.165693E-01    0.000000E+00
   1.925850E+00    4.165693E-01    0.000000E+00
   1.955138E+00    4.165693E-01    0.000000E+00
   1.976973E+00    4.165693E-01    0.000000E+00
   1.993137E+00    4.165693E-01    0.000000E+00
   2.000000E+00    4.165693E-01    0.000000E+00
   0.000000E+00    5.394704E-01    0.000000E+00
   6.863085E-03    5.394704E-01    0.000000E+00
   2.302756E-02    5.394704E-01    0.000000E+00
   4.486176E-02    5.394704E-01    0.000000E+00
   7.414954E-02    5.394704E-01    0.000000E+00
   1.130712E-01    5.394704E-01    0.000000E+00
   1.641615E-01    5.394704E-01    0.000000E+00
   2.301531E-01    5.394704E-01    0.000000E+00
   3.136459E-01    5.394704E-01    0.000000E+00
   4.165693E-01    5.394704E-01    0.000000E+00
   5.394704E-01    5.394704E-01    0.000000E+00
   6.807950E-01    5.394704E-01    0.000000E+00
   8.364541E-01    5.394704E-01    0.000000E+00
   9.999997E-01    5.394704E-01    0.000000E+00
   1.163546E+00    5.394704E-01    0.000000E+00
   1.319205E+00    5.394704E-01    0.000000E+00
   1.460529E+00    5.394704E-01    0.000000E+00
   1.583430E+00    5.394704E-01    0.000000E+00
   1.686354E+00    5.394704E-01    0.000000E+00
   1.769847E+00    5.394704E-01    0.000000E+00
   1.835838E+00    5.394704E-01    0.000000E+00
   1.886929E+00    5.394704E-01    0.000000E+00
   1.925850E+00    5.394704E-01    0.000000E+00
   1.955138E+00    5.394704E-01    0.000000E+00
   1.976973E+00    5.394704E-01    0.000000E+00
   1.993137E+00    5.394704E-01    0.000000E+00
   2.000000E+00    5.394704E-01    0.000000E+00
   0.000000E+00    6.807950E-01    0.000000E+00
   6.863085E-03    6.807950E-01    0.000000E+00
   2.302756E-02    6.807950E-01    0.000000E+00
   4.486176E-02    6.807950E-01    0.000000E+00
   7.414954E-02    6.807950E-01    0.000000E+00
   1.130712E-01    6.807950E-01    0.000000E+00
   1.641615E-01    6.807950E-01    0.000000E+00
   2.301531E-01    6.807950E-01    0.000000E+00
   3.136459E-01    6.807950E-01    0.000000E+00
   4.165693E-01    6.807950E-01    0.000000E+00
   5.394704E-01    6.807950E-01    0.000000E+00
   6.807950E-01    6.807950E-01    0.000000E+00
   8.364541E-01    6.807950E-01    0.000000E+00
   9.999997E-01    6.807950E-01    0.000000E+00
   1.163546E+00    6.807950E-01    0.000000E+00
   1.319205E+00    6.807950E-01    0.000000E+00
   1.460529E+00    6.807950E-01    0.000000E+00
   1.583430E+00    6.807950E-01    0.000000E+00
   1.686354E+00    6.807950E-01    0.000000E+00
   1.769847E+00    6.807950E-01    0.000000E+00
   1.835838E+00    6.807950E-01    0.000000E+00
   1.886929E+00    6.807950E-01    0.000000E+00
   1.925850E+00    6.807950E-01    0.000000E+00
   1.955138E+00    6.807950E-01    0.000000E+00
   1.976973E+00    6.807950E-01    0.000000E+00
   1.993137E+00    6.807950E-01    0.000000E+00
   2.000000E+00    6.807950E-01    0.000000E+00
   0.000000E+00    8.364541E-01    0.000000E+00
   6.863085E-03    8.364541E-01    0.000000E+00
   2.302756E-02    8.364541E-01    0.000000E+00
   4.486176E-02    8.364541E-01    0.000000E+00
   7.414954E-02    8.364541E-01    0.000000E+00
   1.130712E-01    8.364541E-01    0.000000E+00
   1.641615E-01    8.364541E-01    0.000000E+00
   2.301531E-01    8.364541E-01    0.000000E+00
   3.136459E-01    8.364541E-01    0.000000E+00
   4.165693E-01    8.364541E-01    0.000000E+00
   5.394704E-01    8.364541E-01    0.000000E+00
   6.807950E-01    8.364541E-01    0.000000E+00
   8.364541E-01    8.364541E-01    0.000000E+00
   9.999997E-01    8.364541E-01    0.000000E+00
   1.163546E+00    8.364541E-01    0.000000E+00
   1.319205E+00    8.364541E-01    0.000000E+00
   1.460529E+00    8.364541E-01    0.000000E+00
   1.583430E+00    8.364541E-01    0.000000E+00
   1.686354E+00    8.364541E-01    0.000000E+00
   1.769847E+00    8.364541E-01    0.000000E+00
   1.835838E+00    8.364541E-01    0.000000E+00
   1.886929E+00    8.364541E-01    0.000000E+00
   1.925850E+00    8.364541E-01    0.000000E+00
   1.955138E+00    8.364541E-01    0.000000E+00
   1.976973E+00    8.364541E-01    0.000000E+00
   1.993137E+00    8.364541E-01    0.000000E+00
   2.000000E+00    8.364541E-01    0.000000E+00
   0.000000E+00    9.999997E-01    0.000000E+00
   6.863085E-03    9.999997E-01    0.000000E+00
   2.302756E-02    9.999997E-01    0.000000E+00
   4.486176E-02    9.999997E-01    0.000000E+00
   7.414954E-02    9.999997E-01    0.000000E+00
   1.130712E-01    9.999997E-01    0.000000E+00
   1.641615E-01    9.999997E-01    0.000000E+00
   2.301531E-01    9.999997E-01    0.000000E+00
   3.136459E-01    9.999997E-01    0.000000E+00
   4.165693E-01    9.999997E-01    0.000000E+00
   5.394704E-01    9.999997E-01    0.000000E+00
   6.807950E-01    9.999997E-01    0.000000E+00
   8.364541E-01    9.999997E-01    0.000000E+00
   9.999997E-01    9.999997E-01    0.000000E+00
   1.163546E+00    9.999997E-01    0.000000E+00
   1.319205E+00    9.999997E-01    0.000000E+00
   1.460529E+00    9.999997E-01    0.000000E+00
   1.583430E+00    9.999997E-01    0.000000E+00
   1.686354E+00    9.999997E-01    0.000000E+00
   1.769847E+00    9.999997E-01    0.000000E+00
   1.835838E+00    9.999997E-01    0.000000E+00
   1.886929E+00    9.999997E-01    0.000000E+00
   1.925850E+00    9.999997E-01    0.000000E+00
   1.955138E+00    9.999997E-01    0.000000E+00
   1.976973E+00    9.999997E-01    0.000000E+00
   1.993137E+00    9.999997E-01    0.000000E+00
   2.000000E+00    9.999997E-01    0.000000E+00
   0.000000E+00    1.163546E+00    0.000000E+00
   6.863085E-03    1.163546E+00    0.000000E+00
   2.302756E-02    1.163546E+00    0.000000E+00
   4.486176E-02    1.163546E+00    0.000000E+00
   7.414954E-02    1.163546E+00    0.000000E+00
   1.130712E-01    1.163546E+00    0.000000E+00
   1.641615E-01    1.163546E+00    0.000000E+00
   2.301531E-01    1.163546E+00    0.000000E+00
   3.136459E-01    1.163546E+00    0.000000E+00
   4.165693E-01    1.163546E+00    0.000000E+00
   5.394704E-01    1.163546E+00    0.000000E+00
   6.807950E-01    1.163546E+00    0.000000E+00
   8.364541E-01    1.163546E+00    0.000000E+00
   9.999997E-01    1.163546E+00    0.000000E+00
   1.163546E+00    1.163546E+00    0.000000E+00
   1.319205E+00    1.163546E+00    0.000000E+00
   1.460529E+00    1.163546E+00    0.000000E+00
   1.583430E+00    1.163546E+00    0.000000E+00
   1.686354E+00    1.163546E+00    0.000000E+00
   1.769847E+00    1.163546E+00    0.000000E+00
   1.835838E+00    1.163546E+00    0.000000E+00
   1.886929E+00    1.163546E+00    0.000000E+00
   1.925850E+00    1.163546E+00    0.000000E+00
   1.955138E+00    1.163546E+00    0.000000E+00
   1.976973E+00    1.163546E+00    0.000000E+00
   1.993137E+00    1.163546E+00    0.000000E+00
   2.000000E+00    1.163546E+00    0.000000E+00
   0.000000E+00    1.319205E+00    0.000000E+00
   6.863085E-03    1.319205E+00    0.000000E+00
   2.302756E-02    1.319205E+00    0.000000E+00
   4.486176E-02    1.319205E+00    0.000000E+00
   7.414954E-02    1.319205E+00    0.000000E+00
   1.130712E-01    1.319205E+00    0.000000E+00
   1.641615E-01    1.319205E+00    0.000000E+00
   2.301531E-01    1.319205E+00    0.000000E+00
   3.136459E-01    1.319205E+00    0.000000E+00
   4.165693E-01    1.319205E+00    0.000000E+00
   5.394704E-01    1.319205E+00    0.000000E+00
   6.807950E-01    1.319205E+00    0.000000E+00
   8.364541E-01    1.319205E+00    0.000000E+00
   9.999997E-01    1.319205E+00    0.000000E+00
   1.163546E+00    1.319205E+00    0.000000E+00
   1.319205E+00    1.319205E+00    0.000000E+00
   1.460529E+00    1.319205E+00    0.000000E+00
   1.583430E+00    1.319205E+00    0.000000E+00
   1.686354E+00    1.319205E+00    0.000000E+00
   1.769847E+00    1.319205E+00    0.000000E+00
   1.835838E+00    1.319205E+00    0.000000E+00
   1.886929E+00    1.319205E+00    0.000000E+00
   1.925850E+00    1.319205E+00    0.000000E+00
   1.955138E+00    1.319205E+00    0.000000E+00
   1.976973E+00    1.319205E+00    0.000000E+00
   1.993137E+00    1.319205E+00    0.000000E+00
   2.000000E+00    1.319205E+00    0.000000E+00
   0.000000E+00    1.460529E+00    0.000000E+00
   6.863085E-03    1.460529E+00    0.000000E+00
   2.302756E-02    1.460529E+00    0.000000E+00
   4.486176E-02    1.460529E+00    0.000000E+00
   7.414954E-02    1.460529E+00    0.000000E+00
   1.130712E-01    1.460529E+00    0.000000E+00
   1.641615E-01    1.460529E+00    0.000000E+00
   2.301531E-01    1.460529E+00    0.000000E+00
   3.136459E-01    1.460529E+00    0.000000E+00
   4.165693E-01    1.460529E+00    0.000000E+00
   5.394704E-01    1.460529E+00    0.000000E+00
   6.807950E-01    1.460529E+00    0.000000E+00
   8.364541E-01    1.460529E+00    0.000000E+00
   9.999997E-01    1.460529E+00    0.000000E+00
   1.163546E+00    1.460529E+00    0.000000E+00
   1.319205E+00    1.460529E+00    0.000000E+00
   1.460529E+00    1.460529E+00    0.000000E+00
   1.583430E+00    1.460529E+00    0.000000E+00
   1.686354E+00    1.460529E+00    0.000000E+00
   1.769847E+00    1.460529E+00    0.000000E+00
   1.835838E+00    1.460529E+00    0.000000E+00
   1.886929E+00    1.460529E+00    0.000000E+00
   1.925850E+00    1.460529E+00    0.000000E+00
   1.955138E+00    1.460529E+00    0.000000E+00
   1.976973E+00    1.460529E+00    0.000000E+00
   1.993137E+00    1.460529E+00    0.000000E+00
   2.000000E+00    1.460529E+00    0.000000E+00
   0.000000E+00    1.583430E+00    0.000000E+00
   6.863085E-03    1.583430E+00    0.000000E+00
   2.302756E-02    1.583430E+00    0.000000E+00
   4.486176E-02    1.583430E+00    0.000000E+00
   7.414954E-02    1.583430E+00    0.000000E+00
   1.130712E-01    1.583430E+00    0.000000E+00
   1.641615E-01    1.583430E+00    0.000000E+00
   2.301531E-01    1.583430E+00    0.000000E+00
   3.136459E-01    1.583430E+00    0.000000E+00
   4.165693E-01    1.583430E+00    0.000000E+00
   5.394704E-01    1.583430E+00    0.000000E+00
   6.807950E-01    1.583430E+00    0.000000E+00
   8.364541E-01    1.583430E+00    0.000000E+00
   9.999997E-01    1.583430E+00    0.000000E+00
   1.163546E+00    1.583430E+00    0.000000E+00
   1.319205E+00    1.583430E+00    0.000000E+00
   1.460529E+00    1.583430E+00    0.000000E+00
   1.583430E+00    1.583430E+00    0.000000E+00
   1.686354E+00    1.583430E+00    0.000000E+00
   1.769847E+00    1.583430E+00    0.000000E+00
   1.835838E+00    1.583430E+00    0.000000E+00
   1.886929E+00    1.583430E+00    0.000000E+00
   1.925850E+00    1.583430E+00    0.000000E+00
   1.955138E+00    1.583430E+00    0.000000E+00
   1.976973E+00    1.583430E+00    0.000000E+00
   1.993137E+00    1.583430E+00    0.000000E+00
   2.000000E+00    1.583430E+00    0.000000E+00
   0.000000E+00    1.686354E+00    0.000000E+00
   6.863085E-03    1.686354E+00    0.000000E+00
   2.302756E-02    1.686354E+00    0.000000E+00
   4.486176E-02    1.686354E+00    0.000000E+00
   7.414954E-02    1.686354E+00    0.000000E+00
   1.130712E-01    1.686354E+00    0.000000E+00
   1.641615E-01    1.686354E+00    0.000000E+00
   2.301531E-01    1.686354E+00    0.000000E+00
   3.136459E-01    1.686354E+00    0.000000E+00
   4.165693E-01    1.686354E+00    0.000000E+00
   5.394704E-01    1.686354E+00    0.000000E+00
   6.807950E-01    1.686354E+00    0.000000E+00
   8.364541E-01    1.686354E+00    0.000000E+00
   9.999997E-01    1.686354E+00    0.000000E+00
   1.163546E+00    1.686354E+00    0.000000E+00
   1.319205E+00    1.686354E+00    0.000000E+00
   1.460529E+00    1.686354E+00    0.000000E+00
   1.583430E+00    1.686354E+00    0.000000E+00
   1.686354E+00    1.686354E+00    0.000000E+00
   1.769847E+00    1.686354E+00    0.000000E+00
   1.835838E+00    1.686354E+00    0.000000E+00
   1.886929E+00    1.686354E+00    0.000000E+00
   1.925850E+00    1.686354E+00    0.000000E+00
   1.955138E+00    1.686354E+00    0.000000E+00
   1.976973E+00    1.686354E+00    0.000000E+00
   1.993137E+00    1.686354E+00    0.000000E+00
   2.000000E+00    1.686354E+00    0.000000E+00
   0.000000E+00    1.769847E+00    0.000000E+00
   6.863085E-03    1.769847E+00    0.000000E+00
   2.302756E-02    1.769847E+00    0.000000E+00
   4.486176E-02    1.769847E+00    0.000000E+00
   7.414954E-02    1.769847E+00    0.000000E+00
   1.130712E-01    1.769847E+00    0.000000E+00
   1.641615E-01    1.769847E+00    0.000000E+00
   2.301531E-01    1.769847E+00    0.000000E+00
   3.136459E-01    1.769847E+00    0.000000E+00
   4.165693E-01    1.769847E+00    0.000000E+00
   5.394704E-01    1.769847E+00    0.000000E+00
   6.807950E-01    1.769847E+00    0.000000E+00
   8.364541E-01    1.769847E+00    0.000000E+00
   9.999997E-01    1.769847E+00    0.000000E+00
   1.163546E+00    1.769847E+00    0.000000E+00
   1.319205E+00    1.769847E+00    0.000000E+00
   1.460529E+00    1.769847E+00    0.000000E+00
   1.583430E+00    1.769847E+00    0.000000E+00
   1.686354E+00    1.769847E+00    0.000000E+00
   1.769847E+00    1.769847E+00    0.000000E+00
   1.835838E+00    1.769847E+00    0.000000E+00
   1.886929E+00    1.769847E+00    0.000000E+00
   1.925850E+00    1.769847E+00    0.000000E+00
   1.955138E+00    1.769847E+00    0.000000E+00
   1.976973E+00    1.769847E+00    0.000000E+00
   1.993137E+00    1.769847E+00    0.000000E+00
   2.000000E+00    1.769847E+00    0.000000E+00
   0.000000E+00    1.835838E+00    0.000000E+00
   6.863085E-03    1.835838E+00    0.000000E+00
   2.302756E-02    1.835838E+00    0.000000E+00
   4.486176E-02    1.835838E+00    0.000000E+00
   7.414954E-02    1.835838E+00    0.000000E+00
   1.130712E-01    1.835838E+00    0.000000E+00
   1.641615E-01    1.835838E+00    0.000000E+00
   2.301531E-01    1.835838E+00    0.000000E+00
   3.136459E-01    1.835838E+00    0.000000E+00
   4.165693E-01    1.835838E+00    0.000000E+00
   5.394704E-01    1.835838E+00    0.000000E+00
   6.807950E-01    1.835838E+00    0.000000E+00
   8.364541E-01    1.835838E+00    0.000000E+00
   9.999997E-01    1.835838E+00    0.000000E+00
   1.163546E+00    1.835838E+00    0.000000E+00
   1.319205E+00    1.835838E+00    0.000000E+00
   1.460529E+00    1.835838E+00    0.000000E+00
   1.583430E+00    1.835838E+00    0.000000E+00
   1.686354E+00    1.835838E+00    0.000000E+00
   1.769847E+00    1.835838E+00    0.000000E+00
   1.835838E+00    1.835838E+00    0.000000E+00
   1.886929E+00    1.835838E+00    0.000000E+00
   1.925850E+00    1.835838E+00    0.000000E+00
   1.955138E+00    1.835838E+00    0.000000E+00
   1.976973E+00    1.835838E+00    0.000000E+00
   1.993137E+00    1.835838E+00    0.000000E+00
   2.000000E+00    1.835838E+00    0.000000E+00
   0.000000E+00    1.886929E+00    0.000000E+00
   6.863085E-03    1.886929E+00    0.000000E+00
   2.302756E-02    1.886929E+00    0.000000E+00
   4.486176E-02    1.886929E+00    0.000000E+00
   7.414954E-02    1.886929E+00    0.000000E+00
   1.130712E-01    1.886929E+00    0.000000E+00
   1.641615E-01    1.886929E+00    0.000000E+00
   2.301531E-01    1.886929E+00    0.000000E+00
   3.136459E-01    1.886929E+00    0.000000E+00
   4.165693E-01    1.886929E+00    0.000000E+00
   5.394704E-01    1.886929E+00    0.000000E+00
   6.807950E-01    1.886929E+00    0.000000E+00
   8.364541E-01    1.886929E+00    0.000000E+00
   9.999997E-01    1.886929E+00    0.000000E+00
   1.163546E+00    1.886929E+00    0.000000E+00
   1.319205E+00    1.886929E+00    0.000000E+00
   1.460529E+00    1.886929E+00    0.000000E+00
   1.583430E+00    1.886929E+00    0.000000E+00
   1.686354E+00    1.886929E+00    0.000000E+00
   1.769847E+00    1.886929E+00    0.000000E+00
   1.835838E+00    1.886929E+00    0.000000E+00
   1.886929E+00    1.886929E+00    0.000000E+00
   1.925850E+00    1.886929E+00    0.000000E+00
   1.955138E+00    1.886929E+00    0.000000E+00
   1.976973E+00    1.886929E+00    0.000000E+00
   1.993137E+00    1.886929E+00    0.000000E+00
   2.000000E+00    1.886929E+00    0.000000E+00
   0.000000E+00    1.925850E+00    0.000000E+00
   6.863085E-03    1.925850E+00    0.000000E+00
   2.302756E-02    1.925850E+00    0.000000E+00
   4.486176E-02    1.925850E+00    0.000000E+00
   7.414954E-02    1.925850E+00    0.000000E+00
   1.130712E-01    1.925850E+00    0.000000E+00
   1.641615E-01    1.925850E+00    0.000000E+00
   2.301531E-01    1.925850E+00    0.000000E+00
   3.136459E-01    1.925850E+00    0.000000E+00
   4.165693E-01    1.925850E+00    0.000000E+00
   5.394704E-01    1.925850E+00    0.000000E+00
   6.807950E-01    1.925850E+00    0.000000E+00
   8.364541E-01    1.925850E+00    0.000000E+00
   9.999997E-01    1.925850E+00    0.000000E+00
   1.163546E+00    1.925850E+00    0.000000E+00
   1.319205E+00    1.925850E+00    0.000000E+00
   1.460529E+00    1.925850E+00    0.000000E+00
   1.583430E+00    1.925850E+00    0.000000E+00
   1.686354E+00    1.925850E+00    0.000000E+00
   1.769847E+00    1.925850E+00    0.000000E+00
   1.835838E+00    1.925850E+00    0.000000E+00
   1.886929E+00    1.925850E+00    0.000000E+00
   1.925850E+00    1.925850E+00    0.000000E+00
   1.955138E+00    1.925850E+00    0.000000E+00
   1.976973E+00    1.925850E+00    0.000000E+00
   1.993137E+00    1.925850E+00    0.000000E+00
   2.000000E+00    1.925850E+00    0.000000E+00
   0.000000E+00    1.955138E+00    0.000000E+00