TITLE = "2d Diffusion Data"
VARIABLES = "X", "Y", "T", "QX", "QY", "QMAG"
ZONE T="Zone 1", I=202, J=102, DATAPACKING=POINT, ZONETYPE=ORDERED
   2.500000E-03    2.500000E-03    1.500000E+01   -5.000000E+03    0.000000E+00    5.000000E+03
   7.500000E-03    2.500000E-03    1.500000E+01    0.000000E+00    0.000000E+00    0.000000E+00
   1.250000E-02    2.500000E-03    1.500000E+01    0.000000E+00    0.000000E+00    0.000000E+00
   1.750000E-02    2.500000E-03    1.500000E+01    0.000000E+00    0.000000E+00    0.000000E+00
   2.250000E-02    2.500000E-03    1.500000E+01    0.000000E+00    0.000000E+00    0.000000E+00
   2.750000E-02    2.500000E-03    1.500000E+01    0.000000E+00    0.000000E+00    0.000000E+00
   3.250000E-02    2.500000E-03    1.500000E+01    0.000000E+00    0.000000E+00    0.000000E+00
   3.750000E-02    2.500000E-03    1.500000E+01    0.000000E+00    0.000000E+00    0.000000E+00
   4.250000E-02    2.500000E-03    1.500000E+01    0.000000E+00    0.000000E+00    0.000000E+00
   4.750000E-02    2.500000E-03    1.500000E+01    0.000000E+00    0.000000E+00    0.000000E+00
   5.250000E-02    2.500000E-03    1.500000E+01    0.000000E+00    0.000000E+00    0.000000E+00
   5.750000E-02    2.500000E-03    1.500000E+01    0.000000E+00    0.000000E+00    0.000000E+00
   6.250000E-02    2.500000E-03    1.500000E+01    0.000000E+00    0.000000E+00    0.000000E+00
   6.750000E-02    2.500000E-03    1.500000E+01    0.000000E+00    0.000000E+00    0.000000E+00
   7.250000E-02    2.500000E-03    1.500000E+01    0.000000E+00    0.000000E+00    0.000000E+00
   7.750000E-02    2.500000E-03    1.500000E+01    0.000000E+00    0.000000E+00    0.000000E+00
   8.250000E-02    2.500000E-03    1.500000E+01    0.000000E+00    0.000000E+00    0.000000E+00
   8.750000E-02    2.500000E-03    1.500000E+01    0.000000E+00    0.000000E+00    0.000000E+00
   9.250000E-02    2.500000E-03    1.500000E+01    0.000000E+00    0.000000E+00    0.000000E+00
   9.750000E-02    2.500000E-03    1.500000E+01    0.000000E+00    0.000000E+00    0.000000E+00
   1.025000E-01    2.500000E-03    1.500000E+01    0.000000E+00    0.000000E+00    0.000000E+00
   1.075000E-01    2.500000E-03    1.500000E+01    0.000000E+00    0.000000E+00    0.000000E+00
   1.125000E-01    2.500000E-03    1.500000E+01    0.000000E+00    0.000000E+00    0.000000E+00
   1.175000E-01    2.500000E-03    1.500000E+01    0.000000E+00    0.000000E+00    0.000000E+00
   1.225000E-01    2.500000E-03    1.500000E+01    0.000000E+00    0.000000E+00    0.000000E+00
   1.275000E-01    2.500000E-03    1.500000E+01    0.000000E+00    0.000000E+00    0.000000E+00
   1.325000E-01    2.500000E-03    1.500000E+01    0.000000E+00    0.000000E+00    0.000000E+00
   1.375000E-01    2.500000E-03    1.500000E+01    0.000000E+00    0.000000E+00    0.000000E+00
   1.425000E-01    2.500000E-03    1.500000E+01    0.000000E+00    0.000000E+00    0.000000E+00
   1.475000E-01    2.500000E-03    1.500000E+01    0.000000E+00    0.000000E+00    0.000000E+00
   1.525000E-01    2.500000E-03    1.500000E+01    0.000000E+00    0.000000E+00    0.000000E+00
   1.575000E-01    2.500000E-03    1.500000E+01    0.000000E+00    0.000000E+00    0.000000E+00
   1.625000E-01    2.500000E-03    1.500000E+01    0.000000E+00    0.000000E+00    0.000000E+00
   1.675000E-01    2.500000E-03    1.500000E+01    0.000000E+00    0.000000E+00    0.000000E+00
   1.725000E-01    2.500000E-03    1.500000E+01    0.000000E+00    0.000000E+00    0.000000E+00
   1.775000E-01    2.500000E-03    1.500000E+01    0.000000E+00    0.000000E+00    0.000000E+00
   1.825000E-01    2.500000E-03    1.500000E+01    0.000000E+00    0.000000E+00    0.000000E+00
   1.875000E-01    2.500000E-03    1.500000E+01    0.000000E+00    0.000000E+00    0.000000E+00
   1.925000E-01    2.500000E-03    1.500000E+01    0.000000E+00    0.000000E+00    0.000000E+00
   1.975000E-01    2.500000E-03    1.500000E+01    0.000000E+00    0.000000E+00    0.000000E+00
   2.025000E-01    2.500000E-03    1.500000E+01    0.000000E+00    0.000000E+00    0.000000E+00
   2.075000E-01    2.500000E-03    1.500000E+01    0.000000E+00    0.000000E+00    0.000000E+00
   2.125000E-01    2.500000E-03    1.500000E+01    0.000000E+00    0.000000E+00    0.000000E+00
   2.175000E-01    2.500000E-03    1.500000E+01    0.000000E+00    0.000000E+00    0.000000E+00
   2.225000E-01    2.500000E-03    1.500000E+01    0.000000E+00    0.000000E+00    0.000000E+00
   2.275000E-01    2.500000E-03    1.500000E+01    0.000000E+00    0.000000E+00    0.000000E+00
   2.325000E-01    2.500000E-03    1.500000E+01    0.000000E+00    0.000000E+00    0.000000E+00
   2.375000E-01    2.500000E-03    1.500000E+01    0.000000E+00    0.000000E+00    0.000000E+00
   2.425000E-01    2.500000E-03    1.500000E+01    0.000000E+00    0.000000E+00    0.000000E+00
   2.475000E-01    2.500000E-03    1.500000E+01    0.000000E+00    0.000000E+00    0.000000E+00
   2.525000E-01    2.500000E-03    1.500000E+01    0.000000E+00    0.000000E+00    0.000000E+00
   2.575000E-01    2.500000E-03    1.500000E+01    0.000000E+00    0.000000E+00    0.000000E+00
   2.625000E-01    2.500000E-03    1.500000E+01    0.000000E+00    0.000000E+00    0.000000E+00
   2.675000E-01    2.500000E-03    1.500000E+01    0.000000E+00    0.000000E+00    0.000000E+00
   2.725000E-01    2.500000E-03    1.500000E+01    0.000000E+00    0.000000E+00    0.000000E+00
   2.775000E-01    2.500000E-03    1.500000E+01    0.000000E+00    0.000000E+00    0.000000E+00
   2.825000E-01    2.500000E-03    1.500000E+01    0.000000E+00    0.000000E+00    0.000000E+00
   2.875000E-01    2.500000E-03    1.500000E+01    0.000000E+00    0.000000E+00    0.000000E+00
   2.925000E-01    2.500000E-03    1.500000E+01    0.000000E+00    0.000000E+00    0.000000E+00
   2.975000E-01    2.500000E-03    1.500000E+01    0.000000E+00    0.000000E+00    0.000000E+00
   3.025000E-01    2.500000E-03    1.500000E+01    0.000000E+00    0.000000E+00    0.000000E+00
   3.075000E-01    2.500000E-03    1.500000E+01    0.000000E+00    0.000000E+00    0.000000E+00
   3.125000E-01    2.500000E-03    1.500000E+01    0.000000E+00    0.000000E+00    0.000000E+00
   3.175000E-01    2.500000E-03    1.500000E+01    0.000000E+00    0.000000E+00    0.000000E+00
   3.225000E-01    2.500000E-03    1.500000E+01    0.000000E+00    0.000000E+00    0.000000E+00
   3.275000E-01    2.500000E-03    1.500000E+01    0.000000E+00    0.000000E+00    0.000000E+00
   3.325000E-01    2.500000E-03    1.500000E+01    0.000000E+00    0.000000E+00    0.000000E+00
   3.375000E-01    2.500000E-03    1.500000E+01    0.000000E+00    0.000000E+00    0.000000E+00
   3.425000E-01    2.500000E-03    1.500000E+01    0.000000E+00    0.000000E+00    0.000000E+00
   3.475000E-01    2.500000E-03    1.500000E+01    0.000000E+00    0.000000E+00    0.000000E+00
   3.525000E-01    2.500000E-03    1.500000E+01    0.000000E+00    0.000000E+00    0.000000E+00
   3.575000E-01    2.500000E-03    1.500000E+01    0.000000E+00    0.000000E+00    0.000000E+00
   3.625000E-01    2.500000E-03    1.500000E+01    0.000000E+00    0.000000E+00    0.000000E+00
   3.675000E-01    2.500000E-03    1.500000E+01    0.000000E+00    0.000000E+00    0.000000E+00
   3.725000E-01    2.500000E-03    1.500000E+01    0.000000E+00    0.000000E+00    0.000000E+00
   3.775000E-01    2.500000E-03    1.500000E+01    0.000000E+00    0.000000E+00    0.000000E+00
   3.825000E-01    2.500000E-03    1.500000E+01    0.000000E+00    0.000000E+00    0.000000E+00
   3.875000E-01    2.500000E-03    1.500000E+01    0.000000E+00    0.000000E+00    0.000000E+00
   3.925000E-01    2.500000E-03    1.500000E+01    0.000000E+00    0.000000E+00    0.000000E+00
   3.975000E-01    2.500000E-03    1.500000E+01    0.000000E+00    0.000000E+00    0.000000E+00
   4.025000E-01    2.500000E-03    1.500000E+01    0.000000E+00    0.000000E+00    0.000000E+00
   4.075000E-01    2.500000E-03    1.500000E+01    0.000000E+00    0.000000E+00    0.000000E+00
   4.125000E-01    2.500000E-03    1.500000E+01    0.000000E+00    0.000000E+00    0.000000E+00
   4.175000E-01    2.500000E-03    1.500000E+01    0.000000E+00    0.000000E+00    0.000000E+00
   4.225000E-01    2.500000E-03    1.500000E+01    0.000000E+00    0.000000E+00    0.000000E+00
   4.275000E-01    2.500000E-03    1.500000E+01    0.000000E+00    0.000000E+00    0.000000E+00
   4.325000E-01    2.500000E-03    1.500000E+01    0.000000E+00    0.000000E+00    0.000000E+00
   4.375000E-01    2.500000E-03    1.500000E+01    0.000000E+00    0.000000E+00    0.000000E+00
   4.425000E-01    2.500000E-03    1.500000E+01    0.000000E+00    0.000000E+00    0.000000E+00
   4.475000E-01    2.500000E-03    1.500000E+01    0.000000E+00    0.000000E+00    0.000000E+00
   4.525000E-01    2.500000E-03    1.500000E+01    0.000000E+00    0.000000E+00    0.000000E+00
   4.575000E-01    2.500000E-03    1.500000E+01    0.000000E+00    0.000000E+00    0.000000E+00
   4.625000E-01    2.500000E-03    1.500000E+01    0.000000E+00    0.000000E+00    0.000000E+00
   4.675000E-01    2.500000E-03    1.500000E+01    0.000000E+00    0.000000E+00    0.000000E+00
   4.725000E-01    2.500000E-03    1.500000E+01    0.000000E+00    0.000000E+00    0.000000E+00
   4.775000E-01    2.500000E-03    1.500000E+01    0.000000E+00    0.000000E+00    0.000000E+00
   4.825000E-01    2.500000E-03    1.500000E+01    0.000000E+00    0.000000E+00    0.000000E+00
   4.875000E-01    2.500000E-03    1.500000E+01    0.000000E+00    0.000000E+00    0.000000E+00
   4.925000E-01    2.500000E-03    1.500000E+01    0.000000E+00    0.000000E+00    0.000000E+00
   4.975000E-01    2.500000E-03    1.500000E+01    0.000000E+00    0.000000E+00    0.000000E+00
   5.025000E-01    2.500000E-03    1.500000E+01    0.000000E+00    0.000000E+00    0.000000E+00
   5.075000E-01    2.500000E-03    1.500000E+01    0.000000E+00    0.000000E+00    0.000000E+00
   5.125000E-01    2.500000E-03    1.500000E+01    0.000000E+00    0.000000E+00    0.000000E+00
   5.175000E-01    2.500000E-03    1.500000E+01    0.000000E+00    0.000000E+00    0.000000E+00
   5.225000E-01    2.500000E-03    1.500000E+01    0.000000E+00    0.000000E+00    0.000000E+00
   5.275000E-01    2.500000E-03    1.500000E+01    0.000000E+00    0.000000E+00    0.000000E+00
   5.325000E-01    2.500000E-03    1.500000E+01    0.000000E+00    0.000000E+00    0.000000E+00
   5.375000E-01    2.500000E-03    1.500000E+01    0.000000E+00    0.000000E+00    0.000000E+00
   5.425000E-01    2.500000E-03    1.500000E+01    0.000000E+00    0.000000E+00    0.000000E+00
   5.475000E-01    2.500000E-03    1.500000E+01    0.000000E+00    0.000000E+00    0.000000E+00
   5.525000E-01    2.500000E-03    1.500000E+01    0.000000E+00    0.000000E+00    0.000000E+00
   5.575000E-01    2.500000E-03    1.500000E+01    0.000000E+00    0.000000E+00    0.000000E+00
   5.625000E-01    2.500000E-03    1.500000E+01    0.000000E+00    0.000000E+00    0.000000E+00
   5.675000E-01    2.500000E-03    1.500000E+01    0.000000E+00    0.000000E+00    0.000000E+00
   5.725000E-01    2.500000E-03    1.500000E+01    0.000000E+00    0.000000E+00    0.000000E+00
   5.775000E-01    2.500000E-03    1.500000E+01    0.000000E+00    0.000000E+00    0.000000E+00
   5.825000E-01    2.500000E-03    1.500000E+01    0.000000E+00    0.000000E+00    0.000000E+00
   5.875000E-01    2.500000E-03    1.500000E+01    0.000000E+00    0.000000E+00    0.000000E+00
   5.925000E-01    2.500000E-03    1.500000E+01    0.000000E+00    0.000000E+00    0.000000E+00
   5.975000E-01    2.500000E-03    1.500000E+01    0.000000E+00    0.000000E+00    0.000000E+00
   6.025000E-01    2.500000E-03    1.500000E+01    0.000000E+00    0.000000E+00    0.000000E+00
   6.075000E-01    2.500000E-03    1.500000E+01    0.000000E+00    0.000000E+00    0.000000E+00
   6.125000E-01    2.500000E-03    1.500000E+01    0.000000E+00    0.000000E+00    0.000000E+00
   6.175000E-01    2.500000E-03    1.500000E+01    0.000000E+00    0.000000E+00    0.000000E+00
   6.225000E-01    2.500000E-03    1.500000E+01    0.000000E+00    0.000000E+00    0.000000E+00
   6.275000E-01    2.500000E-03    1.500000E+01    0.000000E+00    0.000000E+00    0.000000E+00
   6.325000E-01    2.500000E-03    1.500000E+01    0.000000E+00    0.000000E+00    0.000000E+00
   6.375000E-01    2.500000E-03    1.500000E+01    0.000000E+00    0.000000E+00    0.000000E+00
   6.425000E-01    2.500000E-03    1.500000E+01    0.000000E+00    0.000000E+00    0.000000E+00
   6.475000E-01    2.500000E-03    1.500000E+01    0.000000E+00    0.000000E+00    0.000000E+00
   6.525000E-01    2.500000E-03    1.500000E+01    0.000000E+00    0.000000E+00    0.000000E+00
   6.575000E-01    2.500000E-03    1.500000E+01    0.000000E+00    0.000000E+00    0.000000E+00
   6.625000E-01    2.500000E-03    1.500000E+01    0.000000E+00    0.000000E+00    0.000000E+00
   6.675000E-01    2.500000E-03    1.500000E+01    0.000000E+00    0.000000E+00    0.000000E+00
   6.725000E-01    2.500000E-03    1.500000E+01    0.000000E+00    0.000000E+00    0.000000E+00
   6.775000E-01    2.500000E-03    1.500000E+01    0.000000E+00    0.000000E+00    0.000000E+00
   6.825000E-01    2.500000E-03    1.500000E+01    0.000000E+00    0.000000E+00    0.000000E+00
   6.875000E-01    2.500000E-03    1.500000E+01    0.000000E+00    0.000000E+00    0.000000E+00
   6.925000E-01    2.500000E-03    1.500000E+01    0.000000E+00    0.000000E+00    0.000000E+00
   6.975000E-01    2.500000E-03    1.500000E+01    0.000000E+00    0.000000E+00    0.000000E+00
   7.025000E-01    2.500000E-03    1.500000E+01    0.000000E+00    0.000000E+00    0.000000E+00
   7.075000E-01    2.500000E-03    1.500000E+01    0.000000E+00    0.000000E+00    0.000000E+00
   7.125000E-01    2.500000E-03    1.500000E+01    0.000000E+00    0.000000E+00    0.000000E+00
   7.175000E-01    2.500000E-03    1.500000E+01    0.000000E+00    0.000000E+00    0.000000E+00
   7.225000E-01    2.500000E-03    1.500000E+01    0.000000E+00    0.000000E+00    0.000000E+00
   7.275000E-01    2.500000E-03    1.500000E+01    0.000000E+00    0.000000E+00    0.000000E+00
   7.325000E-01    2.500000E-03    1.500000E+01    0.000000E+00    0.000000E+00    0.000000E+00
   7.375000E-01    2.500000E-03    1.500000E+01    0.000000E+00    0.000000E+00    0.000000E+00
   7.425000E-01    2.500000E-03    1.500000E+01    0.000000E+00    0.000000E+00    0.000000E+00
   7.475000E-01    2.500000E-03    1.500000E+01    0.000000E+00    0.000000E+00    0.000000E+00
   7.525000E-01    2.500000E-03    1.500000E+01    0.000000E+00    0.000000E+00    0.000000E+00
   7.575000E-01    2.500000E-03    1.500000E+01    0.000000E+00    0.000000E+00    0.000000E+00
   7.625000E-01    2.500000E-03    1.500000E+01    0.000000E+00    0.000000E+00    0.000000E+00
   7.675000E-01    2.500000E-03    1.500000E+01    0.000000E+00    0.000000E+00    0.000000E+00
   7.725000E-01    2.500000E-03    1.500000E+01    0.000000E+00    0.000000E+00    0.000000E+00
   7.775000E-01    2.500000E-03    1.500000E+01    0.000000E+00    0.000000E+00    0.000000E+00
   7.825000E-01    2.500000E-03    1.500000E+01    0.000000E+00    0.000000E+00    0.000000E+00
   7.875000E-01    2.500000E-03    1.500000E+01    0.000000E+00    0.000000E+00    0.000000E+00
   7.925000E-01    2.500000E-03    1.500000E+01    0.000000E+00    0.000000E+00    0.000000E+00
   7.975000E-01    2.500000E-03    1.500000E+01    0.000000E+00    0.000000E+00    0.000000E+00
   8.025000E-01    2.500000E-03    1.500000E+01    0.000000E+00    0.000000E+00    0.000000E+00
   8.075000E-01    2.500000E-03    1.500000E+01    0.000000E+00    0.000000E+00    0.000000E+00
   8.125000E-01    2.500000E-03    1.500000E+01    0.000000E+00    0.000000E+00    0.000000E+00
   8.175000E-01    2.500000E-03    1.500000E+01    0.000000E+00    0.000000E+00    0.000000E+00
   8.225000E-01    2.500000E-03    1.500000E+01    0.000000E+00    0.000000E+00    0.000000E+00
   8.275000E-01    2.500000E-03    1.500000E+01    0.000000E+00    0.000000E+00    0.000000E+00
   8.325000E-01    2.500000E-03    1.500000E+01    0.000000E+00    0.000000E+00    0.000000E+00
   8.375000E-01    2.500000E-03    1.500000E+01    0.000000E+00    0.000000E+00    0.000000E+00
   8.425000E-01    2.500000E-03    1.500000E+01    0.000000E+00    0.000000E+00    0.000000E+00
   8.475000E-01    2.500000E-03    1.500000E+01    0.000000E+00    0.000000E+00    0.000000E+00
   8.525000E-01    2.500000E-03    1.500000E+01    0.000000E+00    0.000000E+00    0.000000E+00
   8.575000E-01    2.500000E-03    1.500000E+01    0.000000E+00    0.000000E+00    0.000000E+00
   8.625000E-01    2.500000E-03    1.500000E+01    0.000000E+00    0.000000E+00    0.000000E+00
   8.675000E-01    2.500000E-03    1.500000E+01    0.000000E+00    0.000000E+00    0.000000E+00
   8.725000E-01    2.500000E-03    1.500000E+01    0.000000E+00    0.000000E+00    0.000000E+00
   8.775000E-01    2.500000E-03    1.500000E+01    0.000000E+00    0.000000E+00    0.000000E+00
   8.825000E-01    2.500000E-03    1.500000E+01    0.000000E+00    0.000000E+00    0.000000E+00
   8.875000E-01    2.500000E-03    1.500000E+01    0.000000E+00    0.000000E+00    0.000000E+00
   8.925000E-01    2.500000E-03    1.500000E+01    0.000000E+00    0.000000E+00    0.000000E+00
   8.975000E-01    2.500000E-03    1.500000E+01    0.000000E+00    0.000000E+00    0.000000E+00
   9.025000E-01    2.500000E-03    1.500000E+01    0.000000E+00    0.000000E+00    0.000000E+00
   9.075000E-01    2.500000E-03    1.500000E+01    0.000000E+00    0.000000E+00    0.000000E+00
   9.125000E-01    2.500000E-03    1.500000E+01    0.000000E+00    0.000000E+00    0.000000E+00
   9.175000E-01    2.500000E-03    1.500000E+01    0.000000E+00    0.000000E+00    0.000000E+00
   9.225000E-01    2.500000E-03    1.500000E+01    0.000000E+00    0.000000E+00    0.000000E+00
   9.275000E-01    2.500000E-03    1.500000E+01    0.000000E+00    0.000000E+00    0.000000E+00
   9.325000E-01    2.500000E-03    1.500000E+01    0.000000E+00    0.000000E+00    0.000000E+00
   9.375000E-01    2.500000E-03    1.500000E+01    0.000000E+00    0.000000E+00    0.000000E+00
   9.425000E-01    2.500000E-03    1.500000E+01    0.000000E+00    0.000000E+00    0.000000E+00
   9.475000E-01    2.500000E-03    1.500000E+01    0.000000E+00    0.000000E+00    0.000000E+00
   9.525000E-01    2.500000E-03    1.500000E+01    0.000000E+00    0.000000E+00    0.000000E+00
   9.575000E-01    2.500000E-03    1.500000E+01    0.000000E+00    0.000000E+00    0.000000E+00
   9.625000E-01    2.500000E-03    1.500000E+01    0.000000E+00    0.000000E+00    0.000000E+00
   9.675000E-01    2.500000E-03    1.500000E+01    0.000000E+00    0.000000E+00    0.000000E+00
   9.725000E-01    2.500000E-03    1.500000E+01    0.000000E+00    0.000000E+00    0.000000E+00
   9.775000E-01    2.500000E-03    1.500000E+01    0.000000E+00    0.000000E+00    0.000000E+00
   9.825000E-01    2.500000E-03    1.500000E+01    0.000000E+00    0.000000E+00    0.000000E+00
   9.875000E-01    2.500000E-03    1.500000E+01    0.000000E+00    0.000000E+00    0.000000E+00
   9.925000E-01    2.500000E-03    1.500000E+01    0.000000E+00    0.000000E+00    0.000000E+00
   9.975000E-01    2.500000E-03    1.500000E+01    0.000000E+00    0.000000E+00    0.000000E+00
   1.002500E+00    2.500000E-03    1.500000E+01    0.000000E+00    0.000000E+00    0.000000E+00
   1.007500E+00    2.500000E-03    5.210610E+00    0.000000E+00    0.000000E+00    0.000000E+00
   2.500000E-03    7.500000E-03    0.000000E+00   -5.000000E+03    0.000000E+00    5.000000E+03
   7.500000E-03    7.500000E-03    7.464859E+00   -1.691693E+04    1.706116E+04    2.402635E+04
   1.250000E-02    7.500000E-03    1.041683E+01   -7.050156E+03    1.228777E+04    1.416665E+04
   1.750000E-02    7.500000E-03    1.180609E+01   -3.492630E+03    9.308284E+03    9.941963E+03
   2.250000E-02    7.500000E-03    1.256746E+01   -1.999632E+03    7.391155E+03    7.656873E+03
   2.750000E-02    7.500000E-03    1.303739E+01   -1.277258E+03    6.095469E+03    6.227851E+03
   3.250000E-02    7.500000E-03    1.335395E+01   -8.832095E+02    5.175879E+03    5.250694E+03
   3.750000E-02    7.500000E-03    1.358124E+01   -6.469423E+02    4.494716E+03    4.541036E+03
   4.250000E-02    7.500000E-03    1.375231E+01   -4.946092E+02    3.971860E+03    4.002538E+03
   4.750000E-02    7.500000E-03    1.388580E+01   -3.907490E+02    3.558582E+03    3.579971E+03
   5.250000E-02    7.500000E-03    1.399292E+01   -3.167753E+02    3.223933E+03    3.239458E+03
   5.750000E-02    7.500000E-03    1.408086E+01   -2.622176E+02    2.947458E+03    2.959099E+03
   6.250000E-02    7.500000E-03    1.415439E+01   -2.208195E+02    2.715163E+03    2.724128E+03
   6.750000E-02    7.500000E-03    1.421683E+01   -1.886565E+02    2.517174E+03    2.524234E+03
   7.250000E-02    7.500000E-03    1.427056E+01   -1.631661E+02    2.346340E+03    2.352006E+03
   7.750000E-02    7.500000E-03    1.431730E+01   -1.426171E+02    2.197359E+03    2.201982E+03
   8.250000E-02    7.500000E-03    1.435837E+01   -1.258056E+02    2.066223E+03    2.070049E+03
   8.750000E-02    7.500000E-03    1.439477E+01   -1.118736E+02    1.949846E+03    1.953053E+03
   9.250000E-02    7.500000E-03    1.442726E+01   -1.001958E+02    1.845816E+03    1.848533E+03
   9.750000E-02    7.500000E-03    1.445647E+01   -9.030795E+01    1.752218E+03    1.754544E+03
   1.025000E-01    7.500000E-03    1.448287E+01   -8.185952E+01    1.667517E+03    1.669526E+03
   1.075000E-01    7.500000E-03    1.450687E+01   -7.458175E+01    1.590467E+03    1.592214E+03
   1.125000E-01    7.500000E-03    1.452879E+01   -6.826579E+01    1.520042E+03    1.521574E+03
   1.175000E-01    7.500000E-03    1.454891E+01   -6.274738E+01    1.455398E+03    1.456750E+03
   1.225000E-01    7.500000E-03    1.456743E+01   -5.789589E+01    1.395826E+03    1.397027E+03
   1.275000E-01    7.500000E-03    1.458456E+01   -5.360639E+01    1.340733E+03    1.341804E+03
   1.325000E-01    7.500000E-03    1.460044E+01   -4.979379E+01    1.289614E+03    1.290575E+03
   1.375000E-01    7.500000E-03    1.461522E+01   -4.638854E+01    1.242039E+03    1.242905E+03
   1.425000E-01    7.500000E-03    1.462901E+01   -4.333332E+01    1.197640E+03    1.198423E+03
   1.475000E-01    7.500000E-03    1.464190E+01   -4.058056E+01    1.156098E+03    1.156810E+03
   1.525000E-01    7.500000E-03    1.465399E+01   -3.809052E+01    1.117138E+03    1.117787E+03
   1.575000E-01    7.500000E-03    1.466536E+01   -3.582979E+01    1.080519E+03    1.081113E+03
   1.625000E-01    7.500000E-03    1.467606E+01   -3.377012E+01    1.046030E+03    1.046575E+03
   1.675000E-01    7.500000E-03    1.468615E+01   -3.188751E+01    1.013486E+03    1.013987E+03
   1.725000E-01    7.500000E-03    1.469569E+01   -3.016143E+01    9.827230E+02    9.831858E+02
   1.775000E-01    7.500000E-03    1.470472E+01   -2.857428E+01    9.535967E+02    9.540247E+02
   1.825000E-01    7.500000E-03    1.471329E+01   -2.711087E+01    9.259777E+02    9.263745E+02
   1.875000E-01    7.500000E-03    1.472142E+01   -2.575805E+01    8.997508E+02    9.001195E+02
   1.925000E-01    7.500000E-03    1.472915E+01   -2.450441E+01    8.748128E+02    8.751560E+02
   1.975000E-01    7.500000E-03    1.473651E+01   -2.333997E+01    8.510710E+02    8.513910E+02
   2.025000E-01    7.500000E-03    1.474352E+01   -2.225600E+01    8.284418E+02    8.287407E+02
   2.075000E-01    7.500000E-03    1.475021E+01   -2.124483E+01    8.068497E+02    8.071293E+02
   2.125000E-01    7.500000E-03    1.475660E+01   -2.029970E+01    7.862262E+02    7.864882E+02
   2.175000E-01    7.500000E-03    1.476271E+01   -1.941464E+01    7.665091E+02    7.667549E+02
   2.225000E-01    7.500000E-03    1.476856E+01   -1.858436E+01    7.476417E+02    7.478727E+02
   2.275000E-01    7.500000E-03    1.477415E+01   -1.780414E+01    7.295724E+02    7.297896E+02
   2.325000E-01    7.500000E-03    1.477952E+01   -1.706978E+01    7.122536E+02    7.124581E+02
   2.375000E-01    7.500000E-03    1.478466E+01   -1.637755E+01    6.956421E+02    6.958348E+02
   2.425000E-01    7.500000E-03    1.478960E+01   -1.572407E+01    6.796977E+02    6.798795E+02
   2.475000E-01    7.500000E-03    1.479435E+01   -1.510633E+01    6.643836E+02    6.645554E+02
   2.525000E-01    7.500000E-03    1.479891E+01   -1.452162E+01    6.496660E+02    6.498282E+02
   2.575000E-01    7.500000E-03    1.480329E+01   -1.396749E+01    6.355132E+02    6.356667E+02
   2.625000E-01    7.500000E-03    1.480751E+01   -1.344173E+01    6.218961E+02    6.220414E+02
   2.675000E-01    7.500000E-03    1.481157E+01   -1.294233E+01    6.087878E+02    6.089253E+02
   2.725000E-01    7.500000E-03    1.481548E+01   -1.246748E+01    5.961628E+02    5.962932E+02
   2.775000E-01    7.500000E-03    1.481924E+01   -1.201551E+01    5.839978E+02    5.841214E+02
   2.825000E-01    7.500000E-03    1.482287E+01   -1.158494E+01    5.722709E+02    5.723881E+02
   2.875000E-01    7.500000E-03    1.482638E+01   -1.117438E+01    5.609614E+02    5.610727E+02
   2.925000E-01    7.500000E-03    1.482976E+01   -1.078257E+01    5.500503E+02    5.501560E+02
   2.975000E-01    7.500000E-03    1.483302E+01   -1.040838E+01    5.395195E+02    5.396199E+02
   3.025000E-01    7.500000E-03    1.483616E+01   -1.005074E+01    5.293521E+02    5.294475E+02
   3.075000E-01    7.500000E-03    1.483920E+01   -9.708680E+00    5.195321E+02    5.196228E+02
   3.125000E-01    7.500000E-03    1.484214E+01   -9.381316E+00    5.100445E+02    5.101308E+02
   3.175000E-01    7.500000E-03    1.484498E+01   -9.067823E+00    5.008752E+02    5.009573E+02
   3.225000E-01    7.500000E-03    1.484773E+01   -8.767442E+00    4.920108E+02    4.920889E+02
   3.275000E-01    7.500000E-03    1.485038E+01   -8.479473E+00    4.834386E+02    4.835130E+02
   3.325000E-01    7.500000E-03    1.485295E+01   -8.203266E+00    4.751467E+02    4.752175E+02
   3.375000E-01    7.500000E-03    1.485543E+01   -7.938219E+00    4.671236E+02    4.671911E+02
   3.425000E-01    7.500000E-03    1.485784E+01   -7.683773E+00    4.593586E+02    4.594229E+02
   3.475000E-01    7.500000E-03    1.486016E+01   -7.439409E+00    4.518415E+02    4.519027E+02
   3.525000E-01    7.500000E-03    1.486242E+01   -7.204643E+00    4.445623E+02    4.446207E+02
   3.575000E-01    7.500000E-03    1.486460E+01   -6.979023E+00    4.375119E+02    4.375676E+02
   3.625000E-01    7.500000E-03    1.486671E+01   -6.762130E+00    4.306814E+02    4.307345E+02
   3.675000E-01    7.500000E-03    1.486876E+01   -6.553569E+00    4.240622E+02    4.241129E+02
   3.725000E-01    7.500000E-03    1.487075E+01   -6.352972E+00    4.176464E+02    4.176947E+02
   3.775000E-01    7.500000E-03    1.487268E+01   -6.159994E+00    4.114262E+02    4.114723E+02
   3.825000E-01    7.500000E-03    1.487454E+01   -5.974312E+00    4.053941E+02    4.054381E+02
   3.875000E-01    7.500000E-03    1.487635E+01   -5.795623E+00    3.995431E+02    3.995851E+02
   3.925000E-01    7.500000E-03    1.487811E+01   -5.623640E+00    3.938663E+02    3.939065E+02
   3.975000E-01    7.500000E-03    1.487982E+01   -5.458095E+00    3.883573E+02    3.883957E+02
   4.025000E-01    7.500000E-03    1.488147E+01   -5.298734E+00    3.830098E+02    3.830465E+02
   4.075000E-01    7.500000E-03    1.488308E+01   -5.145320E+00    3.778177E+02    3.778528E+02
   4.125000E-01    7.500000E-03    1.488464E+01   -4.997627E+00    3.727753E+02    3.728088E+02
   4.175000E-01    7.500000E-03    1.488616E+01   -4.855442E+00    3.678769E+02    3.679090E+02
   4.225000E-01    7.500000E-03    1.488763E+01   -4.718564E+00    3.631173E+02    3.631480E+02
   4.275000E-01    7.500000E-03    1.488906E+01   -4.586803E+00    3.584912E+02    3.585205E+02
   4.325000E-01    7.500000E-03    1.489045E+01   -4.459977E+00    3.539936E+02    3.540217E+02
   4.375000E-01    7.500000E-03    1.489181E+01   -4.337918E+00    3.496197E+02    3.496466E+02
   4.425000E-01    7.500000E-03    1.489313E+01   -4.220461E+00    3.453648E+02    3.453906E+02
   4.475000E-01    7.500000E-03    1.489441E+01   -4.107454E+00    3.412246E+02    3.412493E+02
   4.525000E-01    7.500000E-03    1.489565E+01   -3.998749E+00    3.371945E+02    3.372182E+02
   4.575000E-01    7.500000E-03    1.489687E+01   -3.894209E+00    3.332704E+02    3.332932E+02
   4.625000E-01    7.500000E-03    1.489805E+01   -3.793700E+00    3.294483E+02    3.294701E+02
   4.675000E-01    7.500000E-03    1.489921E+01   -3.697096E+00    3.257241E+02    3.257451E+02
   4.725000E-01    7.500000E-03    1.490033E+01   -3.604278E+00    3.220941E+02    3.221143E+02
   4.775000E-01    7.500000E-03    1.490143E+01   -3.515130E+00    3.185545E+02    3.185739E+02
   4.825000E-01    7.500000E-03    1.490249E+01   -3.429544E+00    3.151018E+02    3.151205E+02
   4.875000E-01    7.500000E-03    1.490354E+01   -3.347415E+00    3.117325E+02    3.117505E+02
   4.925000E-01    7.500000E-03    1.490456E+01   -3.268643E+00    3.084432E+02    3.084605E+02
   4.975000E-01    7.500000E-03    1.490555E+01   -3.193132E+00    3.052305E+02    3.052472E+02
   5.025000E-01    7.500000E-03    1.490652E+01   -3.120791E+00    3.020914E+02    3.021075E+02
   5.075000E-01    7.500000E-03    1.490747E+01   -3.051533E+00    2.990226E+02    2.990382E+02
   5.125000E-01    7.500000E-03    1.490840E+01   -2.985272E+00    2.960212E+02    2.960362E+02
   5.175000E-01    7.500000E-03    1.490931E+01   -2.921927E+00    2.930842E+02    2.930988E+02
   5.225000E-01    7.500000E-03    1.491020E+01   -2.861421E+00    2.902088E+02    2.902229E+02
   5.275000E-01    7.500000E-03    1.491107E+01   -2.803679E+00    2.873922E+02    2.874059E+02
   5.325000E-01    7.500000E-03    1.491193E+01   -2.748626E+00    2.846316E+02    2.846449E+02
   5.375000E-01    7.500000E-03    1.491276E+01   -2.696194E+00    2.819245E+02    2.819374E+02
   5.425000E-01    7.500000E-03    1.491359E+01   -2.646312E+00    2.792682E+02    2.792807E+02