TITLE = "2d Diffusion Data"
VARIABLES = "X", "Y", "T", "QX", "QY", "QMAG"
ZONE T="Zone 1", I=12, J=7, DATAPACKING=POINT, ZONETYPE=ORDERED
   5.000000E-02    5.000000E-02    1.500000E+01   -5.000000E+03    0.000000E+00    5.000000E+03
   1.500000E-01    5.000000E-02    1.500000E+01    0.000000E+00    0.000000E+00    0.000000E+00
   2.500000E-01    5.000000E-02    1.500000E+01    0.000000E+00    0.000000E+00    0.000000E+00
   3.500000E-01    5.000000E-02    1.500000E+01    0.000000E+00    0.000000E+00    0.000000E+00
   4.500000E-01    5.000000E-02    1.500000E+01    0.000000E+00    0.000000E+00    0.000000E+00
   5.500000E-01    5.000000E-02    1.500000E+01    0.000000E+00    0.000000E+00    0.000000E+00
   6.500000E-01    5.000000E-02    1.500000E+01    0.000000E+00    0.000000E+00    0.000000E+00
   7.500000E-01    5.000000E-02    1.500000E+01    0.000000E+00    0.000000E+00    0.000000E+00
   8.500000E-01    5.000000E-02    1.500000E+01    0.000000E+00    0.000000E+00    0.000000E+00
   9.500000E-01    5.000000E-02    1.500000E+01    0.000000E+00    0.000000E+00    0.000000E+00
   1.050000E+00    5.000000E-02    1.500000E+01    0.000000E+00    0.000000E+00    0.000000E+00
   1.150000E+00    5.000000E-02    9.135255E+00    0.000000E+00    0.000000E+00    0.000000E+00
   5.000000E-02    1.500000E-01   -1.043139E+01   -5.000000E+03    0.000000E+00    5.000000E+03
   1.500000E-01    1.500000E-01    4.965087E-01   -1.721720E+03    2.282376E+03    2.858944E+03
   2.500000E-01    1.500000E-01    6.123614E+00   -9.095248E+02    1.465170E+03    1.724517E+03
   3.500000E-01    1.500000E-01    9.241940E+00   -5.109127E+02    9.773002E+02    1.102791E+03
   4.500000E-01    1.500000E-01    1.103624E+01   -2.959280E+02    6.868430E+02    7.478815E+02
   5.500000E-01    1.500000E-01    1.208740E+01   -1.744096E+02    5.145100E+02    5.432672E+02
   6.500000E-01    1.500000E-01    1.271325E+01   -1.063767E+02    4.126045E+02    4.260968E+02
   7.500000E-01    1.500000E-01    1.311025E+01   -7.480899E+01    3.508139E+02    3.587015E+02
   8.500000E-01    1.500000E-01    1.343257E+01   -7.710891E+01    3.051221E+02    3.147146E+02
   9.500000E-01    1.500000E-01    1.385169E+01   -1.191592E+02    2.445227E+02    2.720115E+02
   1.050000E+00    1.500000E-01    1.457833E+01   -1.854912E+02    1.063739E+02    2.138279E+02
   1.150000E+00    1.500000E-01    1.563525E+01    0.000000E+00    0.000000E+00    0.000000E+00
   5.000000E-02    2.500000E-01   -1.998866E+01   -5.000000E+03    0.000000E+00    5.000000E+03
   1.500000E-01    2.500000E-01   -6.945923E+00   -2.508059E+03    1.084204E+03    2.732373E+03
   2.500000E-01    2.500000E-01    9.118291E-01   -1.505857E+03    8.093664E+02    1.709584E+03
   3.500000E-01    2.500000E-01    5.602883E+00   -8.980693E+02    5.982093E+02    1.079066E+03
   4.500000E-01    2.500000E-01    8.395740E+00   -5.339887E+02    4.593017E+02    7.043451E+02
   5.500000E-01    2.500000E-01    1.005279E+01   -3.164290E+02    3.745726E+02    4.903386E+02
   6.500000E-01    2.500000E-01    1.103265E+01   -1.888801E+02    3.277109E+02    3.782461E+02
   7.500000E-01    2.500000E-01    1.162679E+01   -1.240182E+02    3.093335E+02    3.332682E+02
   8.500000E-01    2.500000E-01    1.206613E+01   -1.226436E+02    3.165427E+02    3.394713E+02
   9.500000E-01    2.500000E-01    1.264882E+01   -2.293249E+02    3.475012E+02    4.163496E+02
   1.050000E+00    2.500000E-01    1.397717E+01   -5.821416E+02    3.751068E+02    6.925272E+02
   1.150000E+00    2.500000E-01    1.750000E+01    0.000000E+00    0.000000E+00    0.000000E+00
   5.000000E-02    3.500000E-01   -2.098900E+01   -5.000000E+03    0.000000E+00    5.000000E+03
   1.500000E-01    3.500000E-01   -8.538528E+00   -2.770034E+03   -1.802064E+02    2.775889E+03
   2.500000E-01    3.500000E-01   -6.211060E-01   -1.740173E+03   -3.690584E+00    1.740177E+03
   3.500000E-01    3.500000E-01    4.256862E+00   -1.064857E+03    9.129623E+01    1.068763E+03
   4.500000E-01    3.500000E-01    7.208722E+00   -6.404377E+02    1.444059E+02    6.565162E+02
   5.500000E-01    3.500000E-01    8.965963E+00   -3.772103E+02    1.769485E+02    4.166514E+02
   6.500000E-01    3.500000E-01    9.982328E+00   -2.130456E+02    2.028493E+02    2.941705E+02
   7.500000E-01    3.500000E-01    1.053247E+01   -1.104844E+02    2.370535E+02    2.615361E+02
   8.500000E-01    3.500000E-01    1.079471E+01   -5.757800E+01    3.065435E+02    3.119041E+02
   9.500000E-01    3.500000E-01    1.095584E+01   -8.945089E+01    4.709127E+02    4.793331E+02
   1.050000E+00    3.500000E-01    1.145244E+01   -3.644001E+02    8.580780E+02    9.322475E+02
   1.150000E+00    3.500000E-01    1.363525E+01    0.000000E+00    0.000000E+00    0.000000E+00
   5.000000E-02    4.500000E-01   -1.622377E+01   -5.000000E+03    0.000000E+00    5.000000E+03
   1.500000E-01    4.500000E-01   -5.620876E+00   -2.608736E+03   -1.433560E+03    2.976676E+03
   2.500000E-01    4.500000E-01    9.389658E-01   -1.603974E+03   -8.283806E+02    1.805256E+03
   3.500000E-01    4.500000E-01    4.931587E+00   -9.720348E+02   -4.316216E+02    1.063555E+03
   4.500000E-01    4.500000E-01    7.333932E+00   -5.806567E+02   -1.854590E+02    6.095549E+02
   5.500000E-01    4.500000E-01    8.751697E+00   -3.354911E+02   -3.597901E+01    3.374148E+02
   6.500000E-01    4.500000E-01    9.541110E+00   -1.720720E+02    5.578453E+01    1.808886E+02
   7.500000E-01    4.500000E-01    9.883749E+00   -4.119616E+01    1.204089E+02    1.272613E+02
   8.500000E-01    4.500000E-01    9.812137E+00    1.060235E+02    1.966022E+02    2.233683E+02
   9.500000E-01    4.500000E-01    9.186226E+00    3.259427E+02    3.750575E+02    4.968972E+02
   1.050000E+00    4.500000E-01    7.667777E+00    6.157477E+02    9.394536E+02    1.123262E+03
   1.150000E+00    4.500000E-01    5.135255E+00    0.000000E+00    0.000000E+00    0.000000E+00
   5.000000E-02    5.500000E-01   -6.335943E+00   -5.000000E+03    0.000000E+00    5.000000E+03
   1.500000E-01    5.500000E-01    8.927889E-01   -1.875671E+03   -2.624307E+03    3.225698E+03
   2.500000E-01    5.500000E-01    4.828767E+00   -1.042220E+03   -1.522254E+03    1.844852E+03
   3.500000E-01    5.500000E-01    7.096478E+00   -6.048135E+02   -8.514934E+02    1.044433E+03
   4.500000E-01    5.500000E-01    8.428847E+00   -3.538398E+02   -4.478995E+02    5.708034E+02
   5.500000E-01    5.500000E-01    9.202667E+00   -1.993281E+02   -2.097150E+02    2.893304E+02
   6.500000E-01    5.500000E-01    9.615324E+00   -9.032419E+01   -7.709358E+01    1.187513E+02
   7.500000E-01    5.500000E-01    9.740311E+00    1.915983E+01   -1.953013E+01    2.735919E+01
   8.500000E-01    5.500000E-01    9.501277E+00    2.103279E+02   -3.156098E+01    2.126827E+02
   9.500000E-01    5.500000E-01    8.488359E+00    7.105482E+02   -1.367140E+02    7.235810E+02
   1.050000E+00    5.500000E-01    5.271824E+00    2.288767E+03   -3.918135E+02    2.322062E+03
   1.150000E+00    5.500000E-01   -5.135255E+00    0.000000E+00    0.000000E+00    0.000000E+00
   5.000000E-02    6.500000E-01    1.000000E+01    0.000000E+00    0.000000E+00    0.000000E+00
   1.500000E-01    6.500000E-01    1.000000E+01    0.000000E+00    0.000000E+00    0.000000E+00
   2.500000E-01    6.500000E-01    1.000000E+01    0.000000E+00    0.000000E+00    0.000000E+00
   3.500000E-01    6.500000E-01    1.000000E+01    0.000000E+00    0.000000E+00    0.000000E+00
   4.500000E-01    6.500000E-01    1.000000E+01    0.000000E+00    0.000000E+00    0.000000E+00
   5.500000E-01    6.500000E-01    1.000000E+01    0.000000E+00    0.000000E+00    0.000000E+00
   6.500000E-01    6.500000E-01    1.000000E+01    0.000000E+00    0.000000E+00    0.000000E+00
   7.500000E-01    6.500000E-01    1.000000E+01    0.000000E+00    0.000000E+00    0.000000E+00
   8.500000E-01    6.500000E-01    1.000000E+01    0.000000E+00    0.000000E+00    0.000000E+00
   9.500000E-01    6.500000E-01    1.000000E+01    0.000000E+00    0.000000E+00    0.000000E+00
   1.050000E+00    6.500000E-01    1.000000E+01    0.000000E+00    0.000000E+00    0.000000E+00
   1.150000E+00    6.500000E-01    1.000000E+01    0.000000E+00    0.000000E+00    0.000000E+00
